# Probe 0 (0 0 0.005)
# Probe 1 (0 0 0.0155)
# Probe 2 (0 0 0.02653)
# Probe 3 (0 0 0.0381)
# Probe 4 (0 0 0.05026)
# Probe 5 (0 0 0.06302)
# Probe 6 (0 0 0.07642)
# Probe 7 (0 0 0.08)
# Probe 8 (0 0 0.09049)
# Probe 9 (0 0 0.10527)
# Probe 10 (0 0 0.12078)
# Probe 11 (0 0 0.13707)
# Probe 12 (0 0 0.15417)
# Probe 13 (0 0 0.17213)
# Probe 14 (0 0 0.19099)
# Probe 15 (0 0 0.2)
# Probe 16 (0 0 0.21079)
# Probe 17 (0 0 0.23157)
# Probe 18 (0 0 0.2534)
# Probe 19 (0 0 0.27632)
# Probe 20 (0 0 0.30039)
# Probe 21 (0 0 0.32566)
# Probe 22 (0 0 0.35219)
# Probe 23 (0 0 0.38005)
# Probe 24 (0 0 0.4093)
# Probe 25 (0 0 0.44002)
# Probe 26 (0 0 0.47227)
# Probe 27 (0 0 0.50613)
# Probe 28 (0 0 0.54169)
# Probe 29 (0 0 0.57903)
# Probe 30 (0 0 0.61823)
# Probe 31 (0 0 0.65939)
# Probe 32 (0 0 0.70261)
# Probe 33 (0 0 0.74799)
# Probe 34 (0 0 0.79564)
# Probe 35 (0 0 0.84567)
# Probe 36 (0 0 0.8982)
# Probe 37 (0 0 0.95336)
# Probe 38 (0 0 1.01128)
# Probe 39 (0 0 1.0721)
# Probe 40 (0 0 1.13595)
# Probe 41 (0 0 1.203)
# Probe 42 (0 0 1.2734)
# Probe 43 (0 0 1.34732)
# Probe 44 (0 0 1.42493)
# Probe 45 (0 0 1.50643)
# Probe 46 (0 0 1.592)
# Probe 47 (0 0 1.68185)
# Probe 48 (0 0 1.77619)
# Probe 49 (0 0 1.87525)
# Probe 50 (0 0 1.97927)
# Probe 51 (0 0 2.08848)
# Probe 52 (0 0 2.20315)
# Probe 53 (0 0 2.32356)
# Probe 54 (0 0 2.44999)
#       Probe             0             1             2             3             4             5             6             7             8             9            10            11            12            13            14            15            16            17            18            19            20            21            22            23            24            25            26            27            28            29            30            31            32            33            34            35            36            37            38            39            40            41            42            43            44            45            46            47            48            49            50            51            52            53            54
#        Time
        0.262       -1e+300       -1e+300       -1e+300       -1e+300       -1e+300       -1e+300       -1e+300      -5.29622      -6.32599       -6.1682      -4.09516       -5.7497      -4.90064      -4.35075       -3.5758      -3.01446      -2.49254      -1.89926      -1.55462      -1.34994      -0.93552     -0.446428     -0.229747      -0.17561     -0.154512     0.0774715       0.23716      0.294673      0.403851      0.403851      0.424871      0.446541      0.429117      0.410985      0.520461      0.524677      0.599852      0.728472       -1e+300       -1e+300       -1e+300       -1e+300       -1e+300       -1e+300       -1e+300       -1e+300       -1e+300       -1e+300       -1e+300       -1e+300       -1e+300       -1e+300       -1e+300       -1e+300       -1e+300
        0.264       -1e+300       -1e+300       -1e+300       -1e+300       -1e+300       -1e+300       -1e+300      -5.32763      -6.04259      -6.29567      -7.43743      -7.25676       -6.4262       -5.4972      -4.14166      -3.51454      -2.84687      -2.36714      -2.02878      -1.77515      -1.39973     -0.910495     -0.678474     -0.642163     -0.575007     -0.374294     -0.232348     -0.252727     -0.126267     -0.126267     -0.113148     -0.100311     -0.111625     -0.120258    0.00453477     0.0220411      0.112169      0.248623       -1e+300       -1e+300       -1e+300       -1e+300       -1e+300       -1e+300       -1e+300       -1e+300       -1e+300       -1e+300       -1e+300       -1e+300       -1e+300       -1e+300       -1e+300       -1e+300       -1e+300
        0.266       -1e+300       -1e+300       -1e+300       -1e+300       -1e+300       -1e+300       -1e+300      -5.08083      -6.58138      -5.89792       -8.1753      -6.48574      -6.26144       -5.7395      -4.00309      -3.49403      -3.06487      -2.70512      -2.41411      -2.10588      -1.76452      -1.25579      -1.07624      -1.05282     -0.945296     -0.796459      -0.69809     -0.740452     -0.610457     -0.610457      -0.62344     -0.575088     -0.591725     -0.599321     -0.467515     -0.437823     -0.339838     -0.201066       -1e+300       -1e+300       -1e+300       -1e+300       -1e+300       -1e+300       -1e+300       -1e+300       -1e+300       -1e+300       -1e+300       -1e+300       -1e+300       -1e+300       -1e+300       -1e+300       -1e+300
        0.268       -1e+300       -1e+300       -1e+300       -1e+300       -1e+300       -1e+300       -1e+300      -8.15848      -8.87968      -8.68082      -10.3969      -9.33887      -8.83428      -7.53672      -7.20933      -6.99383      -6.66782      -6.30438      -6.01598        -5.731      -5.46758      -4.86736      -4.80521      -4.75592      -4.62135       -4.5369      -4.45767      -4.54041      -4.40346      -4.40346      -4.43198      -4.40106      -4.41332      -4.41483      -4.28746      -4.24133      -4.14515      -4.01343       -1e+300       -1e+300       -1e+300       -1e+300       -1e+300       -1e+300       -1e+300       -1e+300       -1e+300       -1e+300       -1e+300       -1e+300       -1e+300       -1e+300       -1e+300       -1e+300       -1e+300
         0.27       -1e+300       -1e+300       -1e+300       -1e+300       -1e+300       -1e+300       -1e+300      -15.2527      -15.1335      -15.5472      -15.8468      -17.0306      -15.4739      -14.7005      -14.7678       -14.532      -14.0874      -13.7512      -13.5121      -13.3014      -13.0698      -12.4638      -12.4717      -12.3743      -12.2111      -12.2141      -12.1696      -12.2302      -12.0841      -12.0841      -12.1116      -12.1061      -12.1084      -12.1073      -11.9842      -11.9221      -11.8332      -11.7103       -1e+300       -1e+300       -1e+300       -1e+300       -1e+300       -1e+300       -1e+300       -1e+300       -1e+300       -1e+300       -1e+300       -1e+300       -1e+300       -1e+300       -1e+300       -1e+300       -1e+300
        0.272       -1e+300       -1e+300       -1e+300       -1e+300       -1e+300       -1e+300       -1e+300       -5.2446      -5.19184      -5.55308       -7.1775      -6.79139      -5.43793      -5.39283      -5.22736      -4.89289      -4.47269      -4.18811      -3.98663      -3.78195       -3.5006      -3.11361      -3.04625      -2.81748      -2.62098      -2.64916      -2.60274      -2.62255      -2.54348      -2.54348      -2.53701      -2.51322      -2.48546      -2.46457      -2.31895      -2.22957       -2.1431      -2.02473       -1e+300       -1e+300       -1e+300       -1e+300       -1e+300       -1e+300       -1e+300       -1e+300       -1e+300       -1e+300       -1e+300       -1e+300       -1e+300       -1e+300       -1e+300       -1e+300       -1e+300
        0.274       -1e+300       -1e+300       -1e+300       -1e+300       -1e+300       -1e+300       -1e+300      -13.2673      -12.8622      -14.2071        -15.01      -14.6603       -13.514      -13.6045      -13.3497      -13.1579      -12.9059      -12.6588      -12.5236      -12.2811      -12.0105      -11.8457      -11.6996      -11.3296      -11.2523      -11.3252      -11.2859       -11.287      -11.1968      -11.1968      -11.2197      -11.1977       -11.167      -11.1627      -11.0414      -10.9465      -10.8789      -10.7707       -1e+300       -1e+300       -1e+300       -1e+300       -1e+300       -1e+300       -1e+300       -1e+300       -1e+300       -1e+300       -1e+300       -1e+300       -1e+300       -1e+300       -1e+300       -1e+300       -1e+300
        0.276       -1e+300       -1e+300       -1e+300       -1e+300       -1e+300       -1e+300       -1e+300      -1.33112      -1.77472      -1.67536     -0.536062      -1.17778      -1.22779      -1.68914      -1.53805       -1.3409      -1.14052     -0.922499     -0.776248     -0.522779     -0.363464     -0.214529    -0.0182155      0.463695      0.471136      0.439477      0.491008      0.543119      0.589339      0.589339      0.570084      0.633154       0.70716      0.729042      0.886167       1.00747       1.07538       1.18446       -1e+300       -1e+300       -1e+300       -1e+300       -1e+300       -1e+300       -1e+300       -1e+300       -1e+300       -1e+300       -1e+300       -1e+300       -1e+300       -1e+300       -1e+300       -1e+300       -1e+300
        0.278       -1e+300       -1e+300       -1e+300       -1e+300       -1e+300       -1e+300       -1e+300      -1.80683       -5.2602      -1.57707     -0.944017     -0.860263      -1.89542      -2.15125      -1.99917      -1.86798      -1.76243      -1.60743      -1.40027       -1.1628      -1.08013     -0.868482     -0.730689     -0.246346     -0.311126     -0.310623     -0.254779     -0.190823     -0.106602     -0.106602      -0.15152    -0.0809363    0.00618582     0.0378461      0.209501      0.345257      0.408467      0.516383       -1e+300       -1e+300       -1e+300       -1e+300       -1e+300       -1e+300       -1e+300       -1e+300       -1e+300       -1e+300       -1e+300       -1e+300       -1e+300       -1e+300       -1e+300       -1e+300       -1e+300
         0.28       -1e+300       -1e+300       -1e+300       -1e+300       -1e+300       -1e+300       -1e+300      -5.76489      -7.35154      -5.54034      -4.91898      -5.18913      -5.83308        -5.683      -5.61091      -5.56288      -5.57697      -5.55328      -5.18736      -4.89299      -4.83987      -4.62808      -4.54713      -4.19047      -4.25202       -4.1959      -4.13233      -4.06255      -3.92957      -3.92957      -4.00709      -3.92549      -3.83306      -3.79087      -3.60779      -3.46316       -3.3995      -3.29873       -1e+300       -1e+300       -1e+300       -1e+300       -1e+300       -1e+300       -1e+300       -1e+300       -1e+300       -1e+300       -1e+300       -1e+300       -1e+300       -1e+300       -1e+300       -1e+300       -1e+300
        0.282       -1e+300       -1e+300       -1e+300       -1e+300       -1e+300       -1e+300       -1e+300      -9.35805      -9.77613      -9.49305      -9.09364      -8.99224       -9.1845      -9.02137      -8.92728       -9.1188      -9.19196      -9.10606      -8.73566      -8.38817      -8.41921      -8.23889      -8.18465      -7.93415      -7.95735      -7.86082      -7.78995      -7.73635      -7.57726      -7.57726      -7.69938      -7.60415      -7.50271      -7.46347      -7.27498      -7.12713      -7.06127      -6.96918       -1e+300       -1e+300       -1e+300       -1e+300       -1e+300       -1e+300       -1e+300       -1e+300       -1e+300       -1e+300       -1e+300       -1e+300       -1e+300       -1e+300       -1e+300       -1e+300       -1e+300
        0.284       -1e+300       -1e+300       -1e+300       -1e+300       -1e+300       -1e+300       -1e+300       -10.384      -12.2518      -12.1047      -10.7803      -10.3816      -10.3672      -9.88371      -10.1715       -10.281        -10.26      -10.2101      -9.80036       -9.5737      -9.66745      -9.40114      -9.40853       -9.1869      -9.18445       -9.0664      -8.98453      -8.94541      -8.78691      -8.78691      -8.94545      -8.81617      -8.70336      -8.64916      -8.45195      -8.29994      -8.22446      -8.14248       -1e+300       -1e+300       -1e+300       -1e+300       -1e+300       -1e+300       -1e+300       -1e+300       -1e+300       -1e+300       -1e+300       -1e+300       -1e+300       -1e+300       -1e+300       -1e+300       -1e+300
        0.286       -1e+300       -1e+300       -1e+300       -1e+300       -1e+300       -1e+300       -1e+300       -10.446      -12.1398       -13.706      -10.7131      -9.94193      -9.77427       -9.2198      -9.76392       -9.7154      -9.64587      -9.67444      -9.18819      -9.05678      -8.97351      -8.64751      -8.67393      -8.46246      -8.44311      -8.30557      -8.21136      -8.16779      -8.06722      -8.06722      -8.21691      -8.06104      -7.93858      -7.86606      -7.64037      -7.49368      -7.39378      -7.32673       -1e+300       -1e+300       -1e+300       -1e+300       -1e+300       -1e+300       -1e+300       -1e+300       -1e+300       -1e+300       -1e+300       -1e+300       -1e+300       -1e+300       -1e+300       -1e+300       -1e+300
        0.288       -1e+300       -1e+300       -1e+300       -1e+300       -1e+300       -1e+300       -1e+300      -13.0758      -15.5077      -16.8769      -12.4064      -11.5687      -11.4126      -11.5644      -11.4548      -11.3682       -11.104      -10.8792      -10.6945      -10.5527      -10.3634      -10.0583      -10.0371      -9.81283      -9.79424      -9.65972      -9.56157      -9.53292      -9.49224      -9.49224      -9.63336      -9.47073      -9.32653      -9.23846      -8.99097      -8.85374      -8.73136      -8.68243       -1e+300       -1e+300       -1e+300       -1e+300       -1e+300       -1e+300       -1e+300       -1e+300       -1e+300       -1e+300       -1e+300       -1e+300       -1e+300       -1e+300       -1e+300       -1e+300       -1e+300
         0.29       -1e+300       -1e+300       -1e+300       -1e+300       -1e+300       -1e+300       -1e+300      -20.2814      -22.6816      -23.7869      -18.7219      -18.0126      -17.9716      -18.8358      -17.7575      -17.7003      -17.2494      -16.8586      -16.9676      -16.8207       -16.661      -16.4188      -16.3426      -16.1281      -16.0836      -15.9675      -15.8794      -15.8662      -15.8737      -15.8737      -15.9908      -15.8557      -15.7105      -15.6128      -15.3543      -15.2342      -15.0941      -15.0623       -1e+300       -1e+300       -1e+300       -1e+300       -1e+300       -1e+300       -1e+300       -1e+300       -1e+300       -1e+300       -1e+300       -1e+300       -1e+300       -1e+300       -1e+300       -1e+300       -1e+300
        0.292       -1e+300       -1e+300       -1e+300       -1e+300       -1e+300       -1e+300       -1e+300      -16.9002      -19.8887      -20.2679       -14.899      -14.4285      -14.5036      -14.9254      -14.0893       -13.589      -13.2622      -13.1848      -13.2975      -13.1675      -13.0031      -12.7842      -12.6815      -12.4582      -12.3933      -12.2715      -12.1925      -12.1893      -12.2747      -12.2747      -12.3618       -12.231      -12.0656      -11.9425       -11.661      -11.5481      -11.3906      -11.3733       -1e+300       -1e+300       -1e+300       -1e+300       -1e+300       -1e+300       -1e+300       -1e+300       -1e+300       -1e+300       -1e+300       -1e+300       -1e+300       -1e+300       -1e+300       -1e+300       -1e+300
        0.294       -1e+300       -1e+300       -1e+300       -1e+300       -1e+300       -1e+300       -1e+300      -10.9385      -14.0994      -12.4862      -8.47961      -7.98737      -8.02253      -7.60177      -7.35966      -6.79286      -6.76694      -6.99935      -7.05313      -6.95656      -6.79294      -6.54316      -6.42887       -6.1969      -6.09664      -5.95927      -5.88707      -5.85688      -6.04436      -6.04436      -6.10615      -5.95534      -5.73909      -5.58687      -5.27669      -5.16288      -4.98422      -4.98227       -1e+300       -1e+300       -1e+300       -1e+300       -1e+300       -1e+300       -1e+300       -1e+300       -1e+300       -1e+300       -1e+300       -1e+300       -1e+300       -1e+300       -1e+300       -1e+300       -1e+300
        0.296       -1e+300       -1e+300       -1e+300       -1e+300       -1e+300       -1e+300       -1e+300      -15.1188      -18.9503      -16.3405      -13.5368      -12.9565      -12.7245      -12.1363      -12.1985      -12.0885      -12.1675       -12.389      -12.3952      -12.2876       -12.192      -11.8718       -11.733      -11.5755       -11.454      -11.3133      -11.2485       -11.245      -11.4365      -11.4365      -11.5058      -11.3542      -11.1089      -10.9422      -10.6435      -10.5353       -10.347      -10.3626       -1e+300       -1e+300       -1e+300       -1e+300       -1e+300       -1e+300       -1e+300       -1e+300       -1e+300       -1e+300       -1e+300       -1e+300       -1e+300       -1e+300       -1e+300       -1e+300       -1e+300
        0.298       -1e+300       -1e+300       -1e+300       -1e+300       -1e+300       -1e+300       -1e+300      -20.3492      -23.1044      -21.0968      -19.3824      -18.7299      -18.1314      -17.9151      -18.1602      -18.2553      -18.3202      -18.4046      -18.3533      -18.2437      -18.1772      -17.8088      -17.6656      -17.5667      -17.4377      -17.2958      -17.2406      -17.2563      -17.4348      -17.4348      -17.4949      -17.3868       -17.137      -16.9254      -16.6604      -16.5558       -16.379      -16.3923       -1e+300       -1e+300       -1e+300       -1e+300       -1e+300       -1e+300       -1e+300       -1e+300       -1e+300       -1e+300       -1e+300       -1e+300       -1e+300       -1e+300       -1e+300       -1e+300       -1e+300
          0.3       -1e+300       -1e+300       -1e+300       -1e+300       -1e+300       -1e+300       -1e+300      -18.4025      -19.8541      -18.4133      -17.6577      -16.8852      -16.1093       -16.241      -16.3882      -16.4917      -16.5471      -16.6345      -16.4958      -16.3343        -16.23      -15.8769      -15.6658      -15.6249      -15.5025      -15.3341      -15.2853      -15.2945      -15.4185      -15.4185       -15.487      -15.4003      -15.1336      -14.8927      -14.6382      -14.5215      -14.3599      -14.3489       -1e+300       -1e+300       -1e+300       -1e+300       -1e+300       -1e+300       -1e+300       -1e+300       -1e+300       -1e+300       -1e+300       -1e+300       -1e+300       -1e+300       -1e+300       -1e+300       -1e+300
        0.302       -1e+300       -1e+300       -1e+300       -1e+300       -1e+300       -1e+300       -1e+300      -14.6025      -15.6152      -14.3413       -14.091      -13.5323      -12.4438      -12.7462       -12.809      -12.8471      -12.9188      -13.0645      -12.7174      -12.5214      -12.3919      -12.0946      -11.8934      -11.8528      -11.7458      -11.5232      -11.4869      -11.4798      -11.6124      -11.6124      -11.6823       -11.579      -11.2885      -11.0085      -10.7857      -10.6552      -10.5032      -10.4824       -1e+300       -1e+300       -1e+300       -1e+300       -1e+300       -1e+300       -1e+300       -1e+300       -1e+300       -1e+300       -1e+300       -1e+300       -1e+300       -1e+300       -1e+300       -1e+300       -1e+300
        0.304       -1e+300       -1e+300       -1e+300       -1e+300       -1e+300       -1e+300       -1e+300      -14.8579      -15.1618      -15.7973      -15.0411      -14.2857      -13.3964      -13.3204      -13.2797      -13.2547      -13.3313      -13.4157      -12.8237      -12.7189      -12.6117      -12.3612      -12.2147      -12.1598       -12.062      -11.7991      -11.7798      -11.7568      -11.8734      -11.8734      -11.9549      -11.8663      -11.5576      -11.2426      -11.0684      -10.9246      -10.7851      -10.7616       -1e+300       -1e+300       -1e+300       -1e+300       -1e+300       -1e+300       -1e+300       -1e+300       -1e+300       -1e+300       -1e+300       -1e+300       -1e+300       -1e+300       -1e+300       -1e+300       -1e+300
        0.306       -1e+300       -1e+300       -1e+300       -1e+300       -1e+300       -1e+300       -1e+300      -13.0847      -13.2957      -13.0455       -13.184      -12.7519      -12.5931      -11.8066      -11.5048       -11.377      -11.3935      -11.4798      -10.7583      -10.6591      -10.5511       -10.445      -10.3861      -10.2327      -10.1344      -9.81183      -9.85249      -9.77888      -9.86796      -9.86796      -9.93143      -9.86219      -9.53178       -9.1746      -9.02695       -8.8633      -8.73342      -8.70354       -1e+300       -1e+300       -1e+300       -1e+300       -1e+300       -1e+300       -1e+300       -1e+300       -1e+300       -1e+300       -1e+300       -1e+300       -1e+300       -1e+300       -1e+300       -1e+300       -1e+300
        0.308       -1e+300       -1e+300       -1e+300       -1e+300       -1e+300       -1e+300       -1e+300      -11.6662      -12.2063       -11.738      -11.1799      -10.9517       -11.598       -10.047      -9.64032      -9.45529      -9.40574      -9.39567      -8.89091      -8.61822      -8.41249      -8.51869      -8.55024      -8.28207      -8.15937      -7.78295      -7.88641      -7.77066       -7.8811       -7.8811      -7.89261      -7.79937      -7.45195      -7.06325      -6.94585      -6.76273      -6.64229      -6.62119       -1e+300       -1e+300       -1e+300       -1e+300       -1e+300       -1e+300       -1e+300       -1e+300       -1e+300       -1e+300       -1e+300       -1e+300       -1e+300       -1e+300       -1e+300       -1e+300       -1e+300
         0.31       -1e+300       -1e+300       -1e+300       -1e+300       -1e+300       -1e+300       -1e+300      -12.5921      -12.0342      -12.0159      -11.6021      -10.9905       -11.047      -10.0261      -9.66778      -9.49375      -9.46737      -9.31263       -8.7859      -8.52739      -8.24102      -8.54946      -8.55997      -8.23242      -8.06836      -7.69574      -7.83362      -7.69252      -7.76001      -7.76001      -7.78805      -7.69858      -7.35491      -6.95081      -6.86501      -6.67189       -6.5653      -6.57189       -1e+300       -1e+300       -1e+300       -1e+300       -1e+300       -1e+300       -1e+300       -1e+300       -1e+300       -1e+300       -1e+300       -1e+300       -1e+300       -1e+300       -1e+300       -1e+300       -1e+300
        0.312       -1e+300       -1e+300       -1e+300       -1e+300       -1e+300       -1e+300       -1e+300      -11.4209      -9.47614      -11.7891      -9.58738      -8.99722      -8.38109      -7.83635      -7.50174       -7.4119      -7.37006      -7.06491      -6.46247      -6.37918      -6.10307      -6.35097      -6.34071      -5.97003      -5.78695      -5.42112      -5.57358       -5.4163       -5.5269       -5.5269      -5.53001      -5.45178      -5.08374      -4.63586      -4.61231      -4.40055      -4.29986      -4.35951       -1e+300       -1e+300       -1e+300       -1e+300       -1e+300       -1e+300       -1e+300       -1e+300       -1e+300       -1e+300       -1e+300       -1e+300       -1e+300       -1e+300       -1e+300       -1e+300       -1e+300
        0.314       -1e+300       -1e+300       -1e+300       -1e+300       -1e+300       -1e+300       -1e+300      -10.7795      -11.3507      -12.1058      -9.81828      -9.02781      -8.17205      -7.76669      -7.46473      -7.34241      -7.24538      -6.90783      -6.46645      -6.33348      -6.14639      -6.18087      -6.22829       -5.8472      -5.64325      -5.33271      -5.39207      -5.26601      -5.35616      -5.35616      -5.32507      -5.23731      -4.86873      -4.44764      -4.40635      -4.20167      -4.11224      -4.20093       -1e+300       -1e+300       -1e+300       -1e+300       -1e+300       -1e+300       -1e+300       -1e+300       -1e+300       -1e+300       -1e+300       -1e+300       -1e+300       -1e+300       -1e+300       -1e+300       -1e+300
        0.316       -1e+300       -1e+300       -1e+300       -1e+300       -1e+300       -1e+300       -1e+300      -9.96526      -13.2227      -12.2186      -9.87293      -9.03964      -8.15099      -7.68192      -7.35905      -7.14887      -6.97703      -6.77044      -6.43279      -6.16993      -6.03392      -6.03858      -6.16141      -5.76324      -5.55396      -5.25838      -5.23585      -5.14053      -5.20569      -5.20569      -5.14698      -5.08247      -4.71287       -4.3125      -4.27027      -4.07563      -3.99189      -4.11981       -1e+300       -1e+300       -1e+300       -1e+300       -1e+300       -1e+300       -1e+300       -1e+300       -1e+300       -1e+300       -1e+300       -1e+300       -1e+300       -1e+300       -1e+300       -1e+300       -1e+300
        0.318       -1e+300       -1e+300       -1e+300       -1e+300       -1e+300       -1e+300       -1e+300      -8.22279      -12.5322      -11.3713      -8.20437      -7.56586      -6.85301      -6.02078      -5.72845       -5.4644      -5.23351      -4.97446      -4.73001      -4.51093      -4.37061      -4.43033      -4.60466      -4.12689       -3.9613      -3.67183      -3.60066      -3.51659      -3.58606      -3.58606      -3.49762      -3.44867      -3.08281      -2.70156      -2.67872      -2.49797      -2.41739       -2.6176       -1e+300       -1e+300       -1e+300       -1e+300       -1e+300       -1e+300       -1e+300       -1e+300       -1e+300       -1e+300       -1e+300       -1e+300       -1e+300       -1e+300       -1e+300       -1e+300       -1e+300
         0.32       -1e+300       -1e+300       -1e+300       -1e+300       -1e+300       -1e+300       -1e+300      -9.32221      -12.7205       -13.562      -8.90881      -8.28433       -7.7408      -6.73417      -6.22474      -6.05356       -5.8733        -5.475      -5.28329       -5.1732      -5.01655      -5.16224       -5.3178      -4.81589      -4.66212      -4.35362      -4.25029      -4.13716      -4.14056      -4.14056      -4.01857      -3.96948      -3.61719      -3.31035      -3.23345      -3.08354      -3.01147      -3.21784       -1e+300       -1e+300       -1e+300       -1e+300       -1e+300       -1e+300       -1e+300       -1e+300       -1e+300       -1e+300       -1e+300       -1e+300       -1e+300       -1e+300       -1e+300       -1e+300       -1e+300
        0.322       -1e+300       -1e+300       -1e+300       -1e+300       -1e+300       -1e+300       -1e+300      -4.98334      -8.39441      -9.71098      -4.19129      -3.60168      -2.87886      -2.13453      -1.50781       -1.4372      -1.25988     -0.792584     -0.533443     -0.514061      -0.37735     -0.619881     -0.768571     -0.210701    -0.0584189      0.287419      0.406383       0.60459      0.628996      0.628996      0.796274      0.826881       1.18001       1.46208       1.54975       1.68249       1.77799       1.50078       -1e+300       -1e+300       -1e+300       -1e+300       -1e+300       -1e+300       -1e+300       -1e+300       -1e+300       -1e+300       -1e+300       -1e+300       -1e+300       -1e+300       -1e+300       -1e+300       -1e+300
        0.324       -1e+300       -1e+300       -1e+300       -1e+300       -1e+300       -1e+300       -1e+300      -7.31846      -9.94327      -13.0335      -6.36107      -5.68498      -5.03135      -4.17606      -3.54896      -3.81757      -3.54611      -3.01084      -2.77051      -2.68957      -2.66128      -2.95748      -3.17342      -2.63096       -2.4598      -2.08986      -1.95178      -1.67364      -1.59437      -1.59437       -1.4264      -1.39413      -1.07496     -0.861549     -0.758012     -0.657695      -0.59132     -0.806893       -1e+300       -1e+300       -1e+300       -1e+300       -1e+300       -1e+300       -1e+300       -1e+300       -1e+300       -1e+300       -1e+300       -1e+300       -1e+300       -1e+300       -1e+300       -1e+300       -1e+300
        0.326       -1e+300       -1e+300       -1e+300       -1e+300       -1e+300       -1e+300       -1e+300       -15.482      -16.2789      -19.2807      -15.2198      -14.3843      -13.2568      -12.8108      -12.4812      -12.4573      -12.3358      -11.6221      -11.3276      -11.3069      -11.3881      -11.7081      -12.1018      -11.5157      -11.3036      -10.9127        -10.73      -10.3776      -10.2113      -10.2113      -10.0501      -9.99469      -9.71349      -9.55116      -9.45522      -9.37862      -9.30701       -9.5663       -1e+300       -1e+300       -1e+300       -1e+300       -1e+300       -1e+300       -1e+300       -1e+300       -1e+300       -1e+300       -1e+300       -1e+300       -1e+300       -1e+300       -1e+300       -1e+300       -1e+300
        0.328       -1e+300       -1e+300       -1e+300       -1e+300       -1e+300       -1e+300       -1e+300      -14.4628      -13.8513      -14.7578      -15.1845      -13.6764      -12.5095      -12.2927      -12.1568      -11.8533      -11.8344       -10.982      -10.5973      -10.6239      -10.7832      -11.0875      -11.7152           -11      -10.7288      -10.2191      -9.99343      -9.59594       -9.3629       -9.3629      -9.21878      -9.17328      -8.92724      -8.80737      -8.70508      -8.64279      -8.56148      -8.82758       -1e+300       -1e+300       -1e+300       -1e+300       -1e+300       -1e+300       -1e+300       -1e+300       -1e+300       -1e+300       -1e+300       -1e+300       -1e+300       -1e+300       -1e+300       -1e+300       -1e+300
         0.33       -1e+300       -1e+300       -1e+300       -1e+300       -1e+300       -1e+300       -1e+300      -7.15253      -6.55342      -9.61881      -7.90146      -6.66542      -5.67476      -5.40841      -5.06242      -4.85717      -4.74611      -3.86809      -3.41386      -3.55255      -3.75505      -4.03567      -4.82816      -4.00507      -3.67432      -3.09662      -2.78343      -2.31023      -2.06128      -2.06128      -1.93676      -1.87333      -1.66237      -1.58212      -1.46096      -1.40438      -1.30099      -1.57414       -1e+300       -1e+300       -1e+300       -1e+300       -1e+300       -1e+300       -1e+300       -1e+300       -1e+300       -1e+300       -1e+300       -1e+300       -1e+300       -1e+300       -1e+300       -1e+300       -1e+300