# Probe 0 (0 0 0.005)
# Probe 1 (0 0 0.0155)
# Probe 2 (0 0 0.02653)
# Probe 3 (0 0 0.0381)
# Probe 4 (0 0 0.05026)
# Probe 5 (0 0 0.06302)
# Probe 6 (0 0 0.07642)
# Probe 7 (0 0 0.08)
# Probe 8 (0 0 0.09049)
# Probe 9 (0 0 0.10527)
# Probe 10 (0 0 0.12078)
# Probe 11 (0 0 0.13707)
# Probe 12 (0 0 0.15417)
# Probe 13 (0 0 0.17213)
# Probe 14 (0 0 0.19099)
# Probe 15 (0 0 0.2)
# Probe 16 (0 0 0.21079)
# Probe 17 (0 0 0.23157)
# Probe 18 (0 0 0.2534)
# Probe 19 (0 0 0.27632)
# Probe 20 (0 0 0.30039)
# Probe 21 (0 0 0.32566)
# Probe 22 (0 0 0.35219)
# Probe 23 (0 0 0.38005)
# Probe 24 (0 0 0.4093)
# Probe 25 (0 0 0.44002)
# Probe 26 (0 0 0.47227)
# Probe 27 (0 0 0.50613)
# Probe 28 (0 0 0.54169)
# Probe 29 (0 0 0.57903)
# Probe 30 (0 0 0.61823)
# Probe 31 (0 0 0.65939)
# Probe 32 (0 0 0.70261)
# Probe 33 (0 0 0.74799)
# Probe 34 (0 0 0.79564)
# Probe 35 (0 0 0.84567)
# Probe 36 (0 0 0.8982)
# Probe 37 (0 0 0.95336)
# Probe 38 (0 0 1.01128)
# Probe 39 (0 0 1.0721)
# Probe 40 (0 0 1.13595)
# Probe 41 (0 0 1.203)
# Probe 42 (0 0 1.2734)
# Probe 43 (0 0 1.34732)
# Probe 44 (0 0 1.42493)
# Probe 45 (0 0 1.50643)
# Probe 46 (0 0 1.592)
# Probe 47 (0 0 1.68185)
# Probe 48 (0 0 1.77619)
# Probe 49 (0 0 1.87525)
# Probe 50 (0 0 1.97927)
# Probe 51 (0 0 2.08848)
# Probe 52 (0 0 2.20315)
# Probe 53 (0 0 2.32356)
# Probe 54 (0 0 2.44999)
#       Probe             0             1             2             3             4             5             6             7             8             9            10            11            12            13            14            15            16            17            18            19            20            21            22            23            24            25            26            27            28            29            30            31            32            33            34            35            36            37            38            39            40            41            42            43            44            45            46            47            48            49            50            51            52            53            54
#        Time
        0.262             (-1e+300 -1e+300 -1e+300)             (-1e+300 -1e+300 -1e+300)             (-1e+300 -1e+300 -1e+300)             (-1e+300 -1e+300 -1e+300)             (-1e+300 -1e+300 -1e+300)             (-1e+300 -1e+300 -1e+300)             (-1e+300 -1e+300 -1e+300)             (0.00477254 -0.0599713 8.70287e-05)             (0.93925 -0.12429 0.695032)             (-1.27489 1.05488 0.28867)             (1.8114 -0.475232 0.954697)             (5.86715 -0.810848 0.495942)             (6.37471 -1.09176 -0.223793)             (6.68616 -0.66533 -0.687854)             (6.92545 -0.587215 -0.778378)             (7.35768 -0.343191 -0.695669)             (7.37522 -0.625247 -0.287407)             (7.12018 -0.632857 0.178593)             (6.50208 -0.773233 -0.307655)             (6.49353 -0.506121 -0.525688)             (6.43601 -0.427116 -0.353167)             (6.15894 0.14096 0.0204698)             (6.49782 0.0217734 0.243145)             (6.80646 0.109516 0.187423)             (7.09022 0.162767 0.220745)             (7.58914 0.279334 0.212581)             (7.93487 0.0779556 0.0106504)             (8.16277 -0.176357 -0.228778)             (8.35773 -0.109186 -0.218441)             (8.35773 -0.109186 -0.218441)             (8.36072 -0.00935872 -0.0402639)             (8.39417 0.003822 -0.244501)             (8.28293 0.231933 -0.115356)             (8.00114 0.610522 -0.264915)             (8.31086 0.719964 -0.326909)             (8.16178 0.897768 -0.401898)             (7.88051 1.21424 -0.416388)             (7.86937 1.25051 -0.370916)             (-1e+300 -1e+300 -1e+300)             (-1e+300 -1e+300 -1e+300)             (-1e+300 -1e+300 -1e+300)             (-1e+300 -1e+300 -1e+300)             (-1e+300 -1e+300 -1e+300)             (-1e+300 -1e+300 -1e+300)             (-1e+300 -1e+300 -1e+300)             (-1e+300 -1e+300 -1e+300)             (-1e+300 -1e+300 -1e+300)             (-1e+300 -1e+300 -1e+300)             (-1e+300 -1e+300 -1e+300)             (-1e+300 -1e+300 -1e+300)             (-1e+300 -1e+300 -1e+300)             (-1e+300 -1e+300 -1e+300)             (-1e+300 -1e+300 -1e+300)             (-1e+300 -1e+300 -1e+300)             (-1e+300 -1e+300 -1e+300)
        0.264             (-1e+300 -1e+300 -1e+300)             (-1e+300 -1e+300 -1e+300)             (-1e+300 -1e+300 -1e+300)             (-1e+300 -1e+300 -1e+300)             (-1e+300 -1e+300 -1e+300)             (-1e+300 -1e+300 -1e+300)             (-1e+300 -1e+300 -1e+300)             (-0.00548284 -0.0656908 5.36634e-05)             (1.50354 -0.114351 0.226605)             (-0.927554 0.901642 0.204265)             (3.60244 -0.0492773 0.190888)             (5.95625 -0.596928 0.844239)             (5.74856 -0.742805 0.559751)             (7.14601 -0.326746 -0.0955537)             (7.00075 0.281219 0.0914843)             (7.33274 0.571612 -0.405205)             (7.16401 0.0903694 -0.376339)             (6.96763 -0.362047 -0.220858)             (6.58708 -0.485114 -0.503057)             (6.57166 -0.247125 -0.567563)             (6.4899 -0.196769 -0.44456)             (6.17904 0.10536 0.0441704)             (6.7889 -0.041013 0.127883)             (6.84649 0.129441 0.266803)             (7.13577 0.170272 0.274395)             (7.57716 0.234697 0.263721)             (7.85565 0.0126043 0.0701746)             (8.15478 -0.141029 -0.215591)             (8.38424 -0.0703131 -0.208384)             (8.38424 -0.0703131 -0.208384)             (8.40607 -0.010097 -0.0734988)             (8.38824 0.00420473 -0.218732)             (8.2677 0.234829 -0.11859)             (7.96252 0.662923 -0.266345)             (8.31214 0.743294 -0.350906)             (8.15852 0.923009 -0.455785)             (7.89643 1.23121 -0.477444)             (7.93701 1.25361 -0.4222)             (-1e+300 -1e+300 -1e+300)             (-1e+300 -1e+300 -1e+300)             (-1e+300 -1e+300 -1e+300)             (-1e+300 -1e+300 -1e+300)             (-1e+300 -1e+300 -1e+300)             (-1e+300 -1e+300 -1e+300)             (-1e+300 -1e+300 -1e+300)             (-1e+300 -1e+300 -1e+300)             (-1e+300 -1e+300 -1e+300)             (-1e+300 -1e+300 -1e+300)             (-1e+300 -1e+300 -1e+300)             (-1e+300 -1e+300 -1e+300)             (-1e+300 -1e+300 -1e+300)             (-1e+300 -1e+300 -1e+300)             (-1e+300 -1e+300 -1e+300)             (-1e+300 -1e+300 -1e+300)             (-1e+300 -1e+300 -1e+300)
        0.266             (-1e+300 -1e+300 -1e+300)             (-1e+300 -1e+300 -1e+300)             (-1e+300 -1e+300 -1e+300)             (-1e+300 -1e+300 -1e+300)             (-1e+300 -1e+300 -1e+300)             (-1e+300 -1e+300 -1e+300)             (-1e+300 -1e+300 -1e+300)             (-0.00837855 -0.0695498 -9.82626e-05)             (1.15479 -0.741238 -0.828973)             (-0.589691 0.656195 0.212065)             (4.8062 0.535671 0.851014)             (5.06308 0.219813 1.48177)             (4.91129 0.251987 1.96984)             (7.14316 0.44807 1.16139)             (7.16103 0.447853 0.912222)             (7.1005 0.585306 0.295282)             (6.93263 0.477611 -0.0793477)             (6.67267 -0.0703539 -0.501822)             (6.58174 -0.104272 -0.599444)             (6.51553 0.0301498 -0.538943)             (6.37661 0.0814069 -0.447338)             (6.36909 -0.0733794 0.0237458)             (7.02931 -0.0806553 0.0877483)             (6.88603 0.132287 0.299917)             (7.19275 0.133033 0.285599)             (7.56785 0.166785 0.247292)             (7.77958 -0.0467598 0.0785829)             (8.15487 -0.104705 -0.214492)             (8.41029 -0.0279898 -0.208045)             (8.41029 -0.0279898 -0.208045)             (8.4487 -0.0122504 -0.125216)             (8.3721 0.0200019 -0.187795)             (8.24032 0.252101 -0.117572)             (7.92446 0.714424 -0.26707)             (8.31094 0.759946 -0.374009)             (8.15096 0.943817 -0.505718)             (7.91533 1.23756 -0.531722)             (8.02036 1.24628 -0.460441)             (-1e+300 -1e+300 -1e+300)             (-1e+300 -1e+300 -1e+300)             (-1e+300 -1e+300 -1e+300)             (-1e+300 -1e+300 -1e+300)             (-1e+300 -1e+300 -1e+300)             (-1e+300 -1e+300 -1e+300)             (-1e+300 -1e+300 -1e+300)             (-1e+300 -1e+300 -1e+300)             (-1e+300 -1e+300 -1e+300)             (-1e+300 -1e+300 -1e+300)             (-1e+300 -1e+300 -1e+300)             (-1e+300 -1e+300 -1e+300)             (-1e+300 -1e+300 -1e+300)             (-1e+300 -1e+300 -1e+300)             (-1e+300 -1e+300 -1e+300)             (-1e+300 -1e+300 -1e+300)             (-1e+300 -1e+300 -1e+300)
        0.268             (-1e+300 -1e+300 -1e+300)             (-1e+300 -1e+300 -1e+300)             (-1e+300 -1e+300 -1e+300)             (-1e+300 -1e+300 -1e+300)             (-1e+300 -1e+300 -1e+300)             (-1e+300 -1e+300 -1e+300)             (-1e+300 -1e+300 -1e+300)             (0.00557767 -0.0491129 -0.000145956)             (0.154824 -1.5856 -0.373566)             (-0.273587 0.287337 0.197898)             (2.29282 0.692307 1.77595)             (4.0693 0.0265647 1.22182)             (5.59005 0.286568 1.46793)             (6.41279 0.748503 1.49035)             (6.97815 0.639597 0.148985)             (7.09951 0.429162 0.0110115)             (6.79674 0.230438 0.0429712)             (6.55809 0.139593 -0.444181)             (6.54382 0.281931 -0.564261)             (6.36558 0.340152 -0.495876)             (6.25797 0.256733 -0.375886)             (6.74496 -0.145863 -0.109191)             (7.08593 -0.0430624 0.123571)             (6.91491 0.106155 0.268407)             (7.25965 0.0697833 0.249538)             (7.5519 0.0927751 0.163828)             (7.71828 -0.097913 0.0331638)             (8.16245 -0.0713582 -0.228361)             (8.43144 0.0109713 -0.21359)             (8.43144 0.0109713 -0.21359)             (8.48335 -0.0157284 -0.187166)             (8.3416 0.0493815 -0.152111)             (8.19622 0.282681 -0.110628)             (7.88224 0.762901 -0.265513)             (8.30317 0.770222 -0.393406)             (8.13549 0.9597 -0.545714)             (7.93164 1.23503 -0.573906)             (8.11003 1.23201 -0.482067)             (-1e+300 -1e+300 -1e+300)             (-1e+300 -1e+300 -1e+300)             (-1e+300 -1e+300 -1e+300)             (-1e+300 -1e+300 -1e+300)             (-1e+300 -1e+300 -1e+300)             (-1e+300 -1e+300 -1e+300)             (-1e+300 -1e+300 -1e+300)             (-1e+300 -1e+300 -1e+300)             (-1e+300 -1e+300 -1e+300)             (-1e+300 -1e+300 -1e+300)             (-1e+300 -1e+300 -1e+300)             (-1e+300 -1e+300 -1e+300)             (-1e+300 -1e+300 -1e+300)             (-1e+300 -1e+300 -1e+300)             (-1e+300 -1e+300 -1e+300)             (-1e+300 -1e+300 -1e+300)             (-1e+300 -1e+300 -1e+300)
         0.27             (-1e+300 -1e+300 -1e+300)             (-1e+300 -1e+300 -1e+300)             (-1e+300 -1e+300 -1e+300)             (-1e+300 -1e+300 -1e+300)             (-1e+300 -1e+300 -1e+300)             (-1e+300 -1e+300 -1e+300)             (-1e+300 -1e+300 -1e+300)             (0.0230433 -0.0237427 -6.81518e-06)             (0.383123 -1.01722 0.131287)             (0.0751507 -0.156125 0.24934)             (1.56081 0.159118 0.900341)             (3.81135 -0.118308 1.91212)             (5.49333 -0.0165547 1.12279)             (6.35517 0.429757 0.560921)             (7.09483 0.474371 0.111352)             (7.21672 -0.0841632 0.0493583)             (7.13296 -0.195502 -0.0406979)             (6.51236 0.298875 -0.204341)             (6.49302 0.568352 -0.445148)             (6.21616 0.549447 -0.454128)             (6.28733 0.225227 -0.30348)             (7.21559 -0.0431836 -0.343234)             (7.0215 0.0599273 0.103345)             (6.93404 0.0464567 0.160871)             (7.33748 0.0127152 0.167467)             (7.5221 0.0233522 0.0307596)             (7.67996 -0.142817 -0.0545)             (8.18163 -0.0377179 -0.255805)             (8.44342 0.0415684 -0.221956)             (8.44342 0.0415684 -0.221956)             (8.5038 -0.0188378 -0.250776)             (8.29262 0.0892144 -0.112864)             (8.13139 0.324476 -0.0974561)             (7.83064 0.806786 -0.260398)             (8.28467 0.776309 -0.406378)             (8.10877 0.971153 -0.570892)             (7.93949 1.2263 -0.599804)             (8.19457 1.21545 -0.485649)             (-1e+300 -1e+300 -1e+300)             (-1e+300 -1e+300 -1e+300)             (-1e+300 -1e+300 -1e+300)             (-1e+300 -1e+300 -1e+300)             (-1e+300 -1e+300 -1e+300)             (-1e+300 -1e+300 -1e+300)             (-1e+300 -1e+300 -1e+300)             (-1e+300 -1e+300 -1e+300)             (-1e+300 -1e+300 -1e+300)             (-1e+300 -1e+300 -1e+300)             (-1e+300 -1e+300 -1e+300)             (-1e+300 -1e+300 -1e+300)             (-1e+300 -1e+300 -1e+300)             (-1e+300 -1e+300 -1e+300)             (-1e+300 -1e+300 -1e+300)             (-1e+300 -1e+300 -1e+300)             (-1e+300 -1e+300 -1e+300)
        0.272             (-1e+300 -1e+300 -1e+300)             (-1e+300 -1e+300 -1e+300)             (-1e+300 -1e+300 -1e+300)             (-1e+300 -1e+300 -1e+300)             (-1e+300 -1e+300 -1e+300)             (-1e+300 -1e+300 -1e+300)             (-1e+300 -1e+300 -1e+300)             (0.0314955 -0.0180787 2.98704e-05)             (0.609506 -0.724303 0.131881)             (0.52968 -0.428049 0.207043)             (2.95068 -0.934102 2.42765)             (3.64363 0.320826 1.67205)             (5.3619 -0.170246 0.683237)             (6.40846 0.113279 0.734189)             (7.25626 0.337014 0.738825)             (7.27906 -0.15786 0.715659)             (7.14175 -0.186004 0.452943)             (6.45094 0.389822 -0.0391051)             (6.45105 0.627323 -0.296025)             (6.17224 0.518132 -0.403441)             (6.46879 0.123771 -0.281261)             (7.61057 0.0109453 -0.566186)             (7.01651 0.162461 -0.0904968)             (6.98513 -0.0351791 -0.0152993)             (7.45184 -0.00530202 0.0495094)             (7.50681 -0.0382631 -0.121752)             (7.69433 -0.183155 -0.15907)             (8.24651 0.00185417 -0.28897)             (8.46922 0.0613446 -0.23205)             (8.46922 0.0613446 -0.23205)             (8.5314 -0.0187339 -0.308857)             (8.24892 0.137033 -0.0730552)             (8.07001 0.375566 -0.0790096)             (7.79173 0.845915 -0.251214)             (8.27896 0.782292 -0.411221)             (8.09536 0.980018 -0.578551)             (7.96069 1.21509 -0.607222)             (8.28969 1.20175 -0.472277)             (-1e+300 -1e+300 -1e+300)             (-1e+300 -1e+300 -1e+300)             (-1e+300 -1e+300 -1e+300)             (-1e+300 -1e+300 -1e+300)             (-1e+300 -1e+300 -1e+300)             (-1e+300 -1e+300 -1e+300)             (-1e+300 -1e+300 -1e+300)             (-1e+300 -1e+300 -1e+300)             (-1e+300 -1e+300 -1e+300)             (-1e+300 -1e+300 -1e+300)             (-1e+300 -1e+300 -1e+300)             (-1e+300 -1e+300 -1e+300)             (-1e+300 -1e+300 -1e+300)             (-1e+300 -1e+300 -1e+300)             (-1e+300 -1e+300 -1e+300)             (-1e+300 -1e+300 -1e+300)             (-1e+300 -1e+300 -1e+300)
        0.274             (-1e+300 -1e+300 -1e+300)             (-1e+300 -1e+300 -1e+300)             (-1e+300 -1e+300 -1e+300)             (-1e+300 -1e+300 -1e+300)             (-1e+300 -1e+300 -1e+300)             (-1e+300 -1e+300 -1e+300)             (-1e+300 -1e+300 -1e+300)             (0.0244656 -0.00736431 3.5456e-05)             (1.06433 -0.455267 -0.271209)             (0.732552 -0.438237 -0.0761457)             (3.33245 1.65609 1.16309)             (2.88497 0.424282 1.74949)             (5.49562 -0.095259 0.689988)             (6.88499 -0.130482 0.876639)             (7.00656 0.0918031 0.769538)             (7.04275 0.0173135 0.639241)             (6.73132 0.0458323 0.501039)             (6.41204 0.256263 -0.0106163)             (6.4092 0.449922 -0.175455)             (6.22632 0.281126 -0.322853)             (6.61995 0.12388 -0.260458)             (7.70449 -0.16055 -0.696285)             (7.12003 0.190284 -0.394729)             (7.06756 -0.113278 -0.219066)             (7.57825 0.0403234 -0.0843923)             (7.50107 -0.0951976 -0.254018)             (7.73833 -0.219882 -0.245366)             (8.34233 0.0463128 -0.311216)             (8.48666 0.0694864 -0.242038)             (8.48666 0.0694864 -0.242038)             (8.54261 -0.0137977 -0.353163)             (8.1889 0.188457 -0.0330255)             (7.9905 0.431941 -0.054432)             (7.74157 0.878901 -0.235742)             (8.26326 0.790715 -0.405628)             (8.0734 0.986536 -0.566912)             (7.97049 1.20297 -0.59503)             (8.36496 1.19294 -0.444476)             (-1e+300 -1e+300 -1e+300)             (-1e+300 -1e+300 -1e+300)             (-1e+300 -1e+300 -1e+300)             (-1e+300 -1e+300 -1e+300)             (-1e+300 -1e+300 -1e+300)             (-1e+300 -1e+300 -1e+300)             (-1e+300 -1e+300 -1e+300)             (-1e+300 -1e+300 -1e+300)             (-1e+300 -1e+300 -1e+300)             (-1e+300 -1e+300 -1e+300)             (-1e+300 -1e+300 -1e+300)             (-1e+300 -1e+300 -1e+300)             (-1e+300 -1e+300 -1e+300)             (-1e+300 -1e+300 -1e+300)             (-1e+300 -1e+300 -1e+300)             (-1e+300 -1e+300 -1e+300)             (-1e+300 -1e+300 -1e+300)
        0.276             (-1e+300 -1e+300 -1e+300)             (-1e+300 -1e+300 -1e+300)             (-1e+300 -1e+300 -1e+300)             (-1e+300 -1e+300 -1e+300)             (-1e+300 -1e+300 -1e+300)             (-1e+300 -1e+300 -1e+300)             (-1e+300 -1e+300 -1e+300)             (0.00875677 0.00348752 2.18403e-05)             (2.22834 -1.35331 -1.16844)             (1.12996 1.04798 -0.797891)             (3.85849 0.91501 1.15293)             (2.74354 0.764227 2.37034)             (6.29181 -0.399062 0.854043)             (7.26295 0.236431 0.216374)             (7.00438 0.0810808 0.063363)             (6.81145 0.0674891 0.058115)             (6.7815 0.021186 0.0435734)             (6.46925 -0.0571937 0.119436)             (6.41326 0.189223 -0.129098)             (6.35532 0.00163859 -0.182418)             (6.67724 0.151601 -0.147683)             (7.57477 -0.414156 -0.626817)             (7.31444 0.0665895 -0.659161)             (7.21546 -0.152056 -0.38906)             (7.72446 0.144622 -0.208211)             (7.54985 -0.146367 -0.33617)             (7.82651 -0.251988 -0.286563)             (8.48988 0.0856483 -0.30997)             (8.52198 0.0680878 -0.25443)             (8.52198 0.0680878 -0.25443)             (8.56351 -0.00195192 -0.381628)             (8.14026 0.240044 0.00440003)             (7.9221 0.490064 -0.0264697)             (7.70679 0.90517 -0.214898)             (8.26582 0.803839 -0.39067)             (8.07236 0.991123 -0.538288)             (7.99609 1.19085 -0.565321)             (8.44346 1.18905 -0.406878)             (-1e+300 -1e+300 -1e+300)             (-1e+300 -1e+300 -1e+300)             (-1e+300 -1e+300 -1e+300)             (-1e+300 -1e+300 -1e+300)             (-1e+300 -1e+300 -1e+300)             (-1e+300 -1e+300 -1e+300)             (-1e+300 -1e+300 -1e+300)             (-1e+300 -1e+300 -1e+300)             (-1e+300 -1e+300 -1e+300)             (-1e+300 -1e+300 -1e+300)             (-1e+300 -1e+300 -1e+300)             (-1e+300 -1e+300 -1e+300)             (-1e+300 -1e+300 -1e+300)             (-1e+300 -1e+300 -1e+300)             (-1e+300 -1e+300 -1e+300)             (-1e+300 -1e+300 -1e+300)             (-1e+300 -1e+300 -1e+300)
        0.278             (-1e+300 -1e+300 -1e+300)             (-1e+300 -1e+300 -1e+300)             (-1e+300 -1e+300 -1e+300)             (-1e+300 -1e+300 -1e+300)             (-1e+300 -1e+300 -1e+300)             (-1e+300 -1e+300 -1e+300)             (-1e+300 -1e+300 -1e+300)             (-0.0129205 0.0012257 9.42891e-06)             (2.64429 -1.09813 -0.621379)             (2.52027 0.440423 -1.41116)             (3.34398 0.95048 0.392114)             (3.34883 0.091385 0.570189)             (6.65776 -0.161443 0.403022)             (7.09105 0.315337 -0.0951432)             (6.97755 0.0870155 0.00289163)             (6.94464 0.0537944 0.103337)             (7.065 -0.0953955 0.319788)             (6.57644 -0.173295 0.375936)             (6.41937 -0.0141113 -0.141355)             (6.51359 -0.22376 -0.00991524)             (6.74963 0.0244039 0.0536775)             (7.35844 -0.552147 -0.304241)             (7.46811 -0.202656 -0.770819)             (7.39559 -0.130904 -0.466228)             (7.85006 0.271061 -0.296158)             (7.64785 -0.186366 -0.350338)             (7.92433 -0.27943 -0.269156)             (8.652 0.102317 -0.27877)             (8.55855 0.059546 -0.269885)             (8.55855 0.059546 -0.269885)             (8.57815 0.0154076 -0.392885)             (8.08817 0.28749 0.0384498)             (7.85115 0.545488 0.00464111)             (7.67106 0.923198 -0.187872)             (8.27131 0.821425 -0.36712)             (8.07769 0.992639 -0.495997)             (8.02164 1.17703 -0.521068)             (8.50706 1.18645 -0.364118)             (-1e+300 -1e+300 -1e+300)             (-1e+300 -1e+300 -1e+300)             (-1e+300 -1e+300 -1e+300)             (-1e+300 -1e+300 -1e+300)             (-1e+300 -1e+300 -1e+300)             (-1e+300 -1e+300 -1e+300)             (-1e+300 -1e+300 -1e+300)             (-1e+300 -1e+300 -1e+300)             (-1e+300 -1e+300 -1e+300)             (-1e+300 -1e+300 -1e+300)             (-1e+300 -1e+300 -1e+300)             (-1e+300 -1e+300 -1e+300)             (-1e+300 -1e+300 -1e+300)             (-1e+300 -1e+300 -1e+300)             (-1e+300 -1e+300 -1e+300)             (-1e+300 -1e+300 -1e+300)             (-1e+300 -1e+300 -1e+300)
         0.28             (-1e+300 -1e+300 -1e+300)             (-1e+300 -1e+300 -1e+300)             (-1e+300 -1e+300 -1e+300)             (-1e+300 -1e+300 -1e+300)             (-1e+300 -1e+300 -1e+300)             (-1e+300 -1e+300 -1e+300)             (-1e+300 -1e+300 -1e+300)             (-0.0371601 -0.0105709 7.14405e-05)             (1.56495 1.70291 -1.76046)             (3.47854 0.77162 -0.811234)             (3.65014 0.550005 -0.872205)             (4.19104 -0.184748 -0.0512426)             (6.72889 0.228545 0.387564)             (6.79339 0.142611 0.0872327)             (7.02484 0.0275794 0.289112)             (7.29011 -0.0473642 0.439996)             (7.08819 -0.245664 0.558888)             (6.5231 -0.387275 0.31087)             (6.39513 -0.165349 -0.206322)             (6.72452 -0.377259 0.0386659)             (6.97786 -0.229402 0.161236)             (7.09384 -0.552554 0.00950355)             (7.49199 -0.432571 -0.710761)             (7.57126 -0.0591681 -0.43672)             (7.93121 0.37029 -0.330837)             (7.78383 -0.205815 -0.302313)             (8.0084 -0.299664 -0.20379)             (8.79081 0.0827278 -0.227767)             (8.59058 0.049058 -0.289876)             (8.59058 0.049058 -0.289876)             (8.58243 0.0386437 -0.389614)             (8.02986 0.329359 0.0695267)             (7.77596 0.596594 0.0374575)             (7.63082 0.934041 -0.155673)             (8.27654 0.844176 -0.33754)             (8.08669 0.992179 -0.44569)             (8.04445 1.16116 -0.467035)             (8.55285 1.18224 -0.320875)             (-1e+300 -1e+300 -1e+300)             (-1e+300 -1e+300 -1e+300)             (-1e+300 -1e+300 -1e+300)             (-1e+300 -1e+300 -1e+300)             (-1e+300 -1e+300 -1e+300)             (-1e+300 -1e+300 -1e+300)             (-1e+300 -1e+300 -1e+300)             (-1e+300 -1e+300 -1e+300)             (-1e+300 -1e+300 -1e+300)             (-1e+300 -1e+300 -1e+300)             (-1e+300 -1e+300 -1e+300)             (-1e+300 -1e+300 -1e+300)             (-1e+300 -1e+300 -1e+300)             (-1e+300 -1e+300 -1e+300)             (-1e+300 -1e+300 -1e+300)             (-1e+300 -1e+300 -1e+300)             (-1e+300 -1e+300 -1e+300)
        0.282             (-1e+300 -1e+300 -1e+300)             (-1e+300 -1e+300 -1e+300)             (-1e+300 -1e+300 -1e+300)             (-1e+300 -1e+300 -1e+300)             (-1e+300 -1e+300 -1e+300)             (-1e+300 -1e+300 -1e+300)             (-1e+300 -1e+300 -1e+300)             (-0.032122 -0.0121156 1.38148e-05)             (1.27158 0.297072 -1.87894)             (3.03147 0.701556 -1.83036)             (3.90847 0.277794 -0.841637)             (4.36954 0.137869 0.0766963)             (6.28956 0.482008 0.474805)             (6.67898 0.115374 0.0997896)             (7.42495 0.134669 -0.0405029)             (7.5903 -0.0922547 -0.0750834)             (7.13606 -0.422514 -0.0625454)             (6.53592 -0.682441 -0.0877885)             (6.38792 -0.341862 -0.330507)             (7.03506 -0.413481 -0.199117)             (7.23927 -0.466861 -0.0391894)             (6.94186 -0.463978 -0.0115811)             (7.41618 -0.497197 -0.542301)             (7.71159 0.0194019 -0.331011)             (7.96243 0.405535 -0.306461)             (7.9348 -0.201572 -0.220111)             (8.06791 -0.310749 -0.119601)             (8.87449 0.0245426 -0.179815)             (8.61646 0.0397407 -0.315031)             (8.61646 0.0397407 -0.315031)             (8.57692 0.0654727 -0.377159)             (7.96626 0.364782 0.097583)             (7.69857 0.641754 0.0703553)             (7.58609 0.938028 -0.119472)             (8.28154 0.870159 -0.30544)             (8.0996 0.989653 -0.394168)             (8.06625 1.14105 -0.408934)             (8.58396 1.17166 -0.281251)             (-1e+300 -1e+300 -1e+300)             (-1e+300 -1e+300 -1e+300)             (-1e+300 -1e+300 -1e+300)             (-1e+300 -1e+300 -1e+300)             (-1e+300 -1e+300 -1e+300)             (-1e+300 -1e+300 -1e+300)             (-1e+300 -1e+300 -1e+300)             (-1e+300 -1e+300 -1e+300)             (-1e+300 -1e+300 -1e+300)             (-1e+300 -1e+300 -1e+300)             (-1e+300 -1e+300 -1e+300)             (-1e+300 -1e+300 -1e+300)             (-1e+300 -1e+300 -1e+300)             (-1e+300 -1e+300 -1e+300)             (-1e+300 -1e+300 -1e+300)             (-1e+300 -1e+300 -1e+300)             (-1e+300 -1e+300 -1e+300)
        0.284             (-1e+300 -1e+300 -1e+300)             (-1e+300 -1e+300 -1e+300)             (-1e+300 -1e+300 -1e+300)             (-1e+300 -1e+300 -1e+300)             (-1e+300 -1e+300 -1e+300)             (-1e+300 -1e+300 -1e+300)             (-1e+300 -1e+300 -1e+300)             (-0.0382582 -0.0134373 -0.000127552)             (0.484262 1.05605 -2.41981)             (3.24379 0.437415 -2.59389)             (4.20701 0.1254 -0.706708)             (4.80378 0.675544 -0.0827715)             (5.84208 0.61928 0.14335)             (6.72136 0.0634972 -0.317835)             (7.5196 -0.0784108 -0.478358)             (7.56243 -0.22911 -0.604942)             (7.52949 -0.328907 -0.50005)             (6.8927 -0.621295 -0.147137)             (6.40346 -0.478535 -0.510719)             (7.40969 -0.310188 -0.648669)             (7.28881 -0.62955 -0.518252)             (7.04634 -0.337021 -0.275329)             (7.34094 -0.460427 -0.355499)             (7.80119 0.0519532 -0.201372)             (7.95329 0.369443 -0.232295)             (8.0741 -0.178778 -0.143599)             (8.10678 -0.309359 -0.0513657)             (8.89152 -0.0564893 -0.158589)             (8.63816 0.0337602 -0.345963)             (8.63816 0.0337602 -0.345963)             (8.56465 0.0934586 -0.362602)             (7.90102 0.395098 0.122087)             (7.62346 0.681396 0.101134)             (7.54039 0.936693 -0.0816164)             (8.28896 0.897327 -0.275084)             (8.11893 0.986158 -0.348547)             (8.09238 1.11562 -0.352828)             (8.60785 1.15156 -0.248642)             (-1e+300 -1e+300 -1e+300)             (-1e+300 -1e+300 -1e+300)             (-1e+300 -1e+300 -1e+300)             (-1e+300 -1e+300 -1e+300)             (-1e+300 -1e+300 -1e+300)             (-1e+300 -1e+300 -1e+300)             (-1e+300 -1e+300 -1e+300)             (-1e+300 -1e+300 -1e+300)             (-1e+300 -1e+300 -1e+300)             (-1e+300 -1e+300 -1e+300)             (-1e+300 -1e+300 -1e+300)             (-1e+300 -1e+300 -1e+300)             (-1e+300 -1e+300 -1e+300)             (-1e+300 -1e+300 -1e+300)             (-1e+300 -1e+300 -1e+300)             (-1e+300 -1e+300 -1e+300)             (-1e+300 -1e+300 -1e+300)