# Probe 0 (-0.091 0 0.008)
# Probe 1 (-0.091 0 0.016)
# Probe 2 (-0.091 0 0.024)
# Probe 3 (-0.091 0 0.032)
# Probe 4 (-0.091 0 0.04)
# Probe 5 (-0.091 0 0.048)
# Probe 6 (-0.091 0 0.056)
# Probe 7 (-0.091 0 0.064)
# Probe 8 (-0.091 0 0.072)
# Probe 9 (-0.091 0 0.08)
# Probe 10 (-0.0894 0 0.080016)
# Probe 11 (-0.0878 0 0.080016)
# Probe 12 (-0.0854 0 0.080016)
# Probe 13 (-0.083 0 0.080016)
# Probe 14 (-0.079 0 0.080016)
# Probe 15 (-0.075 0 0.080016)
# Probe 16 (-0.067 0 0.080016)
# Probe 17 (-0.059 0 0.080016)
# Probe 18 (-0.051 0 0.080016)
# Probe 19 (-0.043 0 0.080016)
# Probe 20 (-0.035 0 0.080016)
# Probe 21 (-0.027 0 0.080016)
# Probe 22 (-0.019 0 0.080016)
# Probe 23 (-0.011 0 0.080016)
# Probe 24 (-0.003 0 0.080016)
# Probe 25 (0.005 0 0.080016)
# Probe 26 (0.013 0 0.080016)
# Probe 27 (0.021 0 0.080016)
# Probe 28 (0.029 0 0.080016)
# Probe 29 (0.037 0 0.080016)
# Probe 30 (0.045 0 0.080016)
# Probe 31 (0.053 0 0.080016)
# Probe 32 (0.061 0 0.080016)
# Probe 33 (0.069 0 0.080016)
# Probe 34 (0.077 0 0.080016)
# Probe 35 (0.085 0 0.080016)
# Probe 36 (0.091 0 0.080016)
# Probe 37 (0.091 0 0.072016)
# Probe 38 (0.091 0 0.064016)
# Probe 39 (0.091 0 0.056016)
# Probe 40 (0.091 0 0.048016)
# Probe 41 (0.091 0 0.040016)
# Probe 42 (0.091 0 0.032016)
# Probe 43 (0.091 0 0.024016)
# Probe 44 (0.091 0 0.016016)
# Probe 45 (0.091 0 0.008016)
#       Probe             0             1             2             3             4             5             6             7             8             9            10            11            12            13            14            15            16            17            18            19            20            21            22            23            24            25            26            27            28            29            30            31            32            33            34            35            36            37            38            39            40            41            42            43            44            45
#        Time
        0.002       41.3921       41.1069       40.5747       39.7264       38.4206       36.3897       33.0876       26.1516       11.9596      -69.4606      -131.487      -174.858      -230.915      -180.929      -29.2839      -25.6264      -22.1023      -17.3315      -13.6038      -10.8242      -8.73441      -7.14623      -5.93476      -5.01855      -4.35741      -4.01643      -3.23643      -3.64922      -3.43233      -3.89003      -4.46823      -5.36318      -6.72602      -9.82255      -14.6576       -22.134      -16.4414      -75.7587      -24.2309      -8.34945      0.786417       6.57369       10.3793       12.9056       14.5287       15.4891
        0.004       41.0108       40.7591       40.2908       39.5434       38.3951       36.6179       33.7572       27.9319       16.3536      -42.8121      -102.013      -93.1006       -149.82      -141.827       -184.35      -110.279      -6.82895      -8.95728      -9.41952      -8.48738      -7.29512      -6.18755      -5.24473      -4.47537      -3.88562      -3.49483      -2.78689      -3.02496      -2.86655      -3.01622      -3.35034      -3.90611      -4.75251      -6.63106      -9.31165      -13.1628      -14.8739      -70.6912      -42.1014      -16.4269      -5.01904       1.30922       5.38969       8.11308       9.87749       10.9176
        0.006       36.1355       35.8362       35.2873       34.4205        33.109       31.1128       27.9607       21.7137       9.41631       -50.644      -127.034      -147.562       -108.55      -50.3008      -61.9168      -76.1585      -34.3596      -12.5353      -10.9642      -9.91079      -8.82061      -7.78089      -6.86335      -6.09944      -5.50342      -5.02473      -4.39146      -4.53354      -4.33205      -4.27807      -4.43162      -4.76815       -5.2906       -6.4399      -8.01068      -9.86465      -9.05825      -39.0033      -43.0152      -23.5866      -10.3732      -3.60974      0.345155       2.98396       4.71405       5.73559
        0.008       30.7027       30.4653       30.0181       29.3005       28.2056       26.5253        23.867       18.5562        8.3606      -40.0153      -74.3818       -71.143      -67.3912      -85.3625      -89.0882      -96.4084      -102.126      -69.7499      -11.3707        -5.989      -7.71701      -8.87688      -9.36317       -9.4497      -9.37135      -9.17837      -8.78926      -8.98465      -8.82174      -8.70989      -8.69298      -8.78711      -8.97989      -9.43038      -10.0132      -10.1282      -7.58313      -27.7596       -35.152      -28.4796      -18.7731      -12.3168      -8.24073      -5.55471      -3.81153      -2.77016
         0.01       28.8217        28.615       28.2186       27.5756       26.5914       25.0859       22.6946       17.9848        9.0728        -29.22      -61.3835      -57.6269      -68.5483      -78.8729      -75.5846      -85.0076      -98.6996      -122.851      -30.7013       6.73972      -1.83508      -6.29621      -8.09328      -8.89026      -9.26871      -9.33542      -9.13063      -9.36591      -9.24984      -9.08725      -8.97112        -8.874      -8.80071      -8.69353      -8.58181      -7.59489      -3.81575      -21.9093      -24.5872      -25.8796       -21.075      -16.0192      -12.1979       -9.5374      -7.77601      -6.73269
        0.012       34.8938       34.6664       34.2348        33.541       32.4909       30.9077       28.4469       23.6888       14.8695      -23.6083      -52.7071      -53.7261      -55.0621      -50.5298      -54.7357      -67.6179      -80.5481      -88.0755       -33.725       15.3405       15.5568       3.74311     -0.729778      -1.98531      -2.37005      -2.41097      -2.21856      -2.42342      -2.29798      -2.10353       -1.9286      -1.74711      -1.54547      -1.19766     -0.820408      0.366024       4.04794      -10.3648      -9.34798      -13.4721      -12.4055      -9.41852      -6.48447      -4.19981      -2.61519      -1.66402
        0.014       38.0683       37.8566        37.448       36.7896       35.7941       34.2988       31.9952       27.6062        19.617      -12.9718      -38.8561      -38.2449      -38.1309      -40.2583      -36.6425      -34.7235      -53.8632       -78.838       -53.252      -12.5893      0.500086       2.72789       5.53368       2.96826     -0.351739     0.0509937       0.50802      0.485203      0.688001      0.971385       1.22092       1.49151       1.80069       2.33449       2.89056       4.23273       8.01745      -2.66469     -0.254527      -4.37229      -5.29402      -4.11796      -2.30922      -0.63276      0.631254       1.41616
        0.016       31.4097       31.2103       30.8168       30.1786       29.2122        27.763       25.5339       21.3204       13.7582      -16.3941      -39.2548      -38.8262      -39.4707      -40.7826      -45.6959      -49.5448      -60.5385      -62.3218      -77.2336      -47.5534      -15.2727      -3.83705      -2.46977      -2.41643       -3.0681      -2.77991      -3.93348      -4.03521      -3.92657      -3.76063      -3.56644      -3.29715      -2.93836      -2.24784      -1.48345     0.0991367       3.73414      -3.72578      -1.57678      -4.63045      -6.20287      -6.13733      -5.25877      -4.20185      -3.30873      -2.72367
        0.018       27.3825       27.1934        26.809       26.1831       25.2321       23.8055       21.6121         17.46       10.0074      -19.1866      -41.4682      -42.1364      -42.7761      -42.7555      -44.1197      -47.5394      -51.2305       -58.214      -74.4477      -63.4741      -32.8545      -16.1273      -8.91927      -6.15325      -5.30885      -4.74039      -5.58858      -6.39874      -6.35317      -6.13946      -5.93908      -5.65936      -5.25912      -4.42821      -3.46071      -1.56866       2.83663      -4.06271      -2.20216      -4.28337      -5.87526      -6.33775      -6.06979      -5.50876      -4.95541      -4.56724
         0.02       25.9736       25.7963        25.423       24.8146       23.8901       22.5131       20.4104       16.4433       9.39443      -18.9931      -40.6323       -40.256      -39.7329       -39.476      -38.8866      -41.7334      -47.0958      -48.1528      -57.1022      -58.0727      -44.1254      -33.6509      -23.2777       -13.359      -8.20419      -6.66389      -5.99937       -6.4294      -6.67982      -6.48722      -6.26025       -5.9581      -5.52769      -4.64622      -3.60622      -1.79167       1.75802      -2.35534      -1.46932      -2.93382      -4.37838      -5.03022       -5.0852        -4.837        -4.524      -4.28213
        0.022       29.9284       29.7697       29.4166       28.8375       27.9551       26.6374       24.6267       20.8473       14.1399       -11.597      -30.1228      -29.3179      -30.7401      -29.9703      -32.0514      -32.1867      -37.1595      -41.0381      -40.7873      -49.6264      -42.7116      -37.9468      -27.6249      -19.6153      -10.6418       -3.7458      -1.23286      -1.03869       -1.0872      -1.83371      -1.81007      -1.65842       -1.3501     -0.598862      0.350327       1.93971       5.23183       2.14773       2.45534       1.28912    -0.0111213     -0.714647     -0.920189     -0.841964     -0.669265     -0.516343
        0.024       31.9603       31.8154       31.4749       30.9143        30.064        28.802       26.8847       23.3199       17.0462      -6.66894      -23.4719      -24.7505      -23.7213      -24.5793      -28.6623      -26.3983      -27.1749      -27.2247      -38.5127      -49.8181      -25.4203      -26.0964      -31.5695      -25.9646      -16.3042      -6.16861      0.472132       2.61082       2.50397       1.92523       1.45952       0.93038       1.14464       1.66603       2.42371       3.67507       6.62308       4.25703        4.0935       3.11082        1.9266        1.2248      0.968326      0.981384       1.10146       1.22294
        0.026        28.634       28.5039        28.177       27.6328       26.8102       25.5916        23.752       20.3654       14.4814      -7.96012      -23.7863      -24.9255       -23.811      -22.3252       -22.375      -24.3698      -24.5056      -25.5627      -31.0137      -39.3726      -35.3651      -27.2664      -28.2248      -27.1698      -23.0324      -14.1853      -4.51451     -0.102563      0.873258      0.203082     -0.353078     -0.708629      -1.21742      -1.03334     -0.472542      0.466721       3.05907       1.22467      0.708476     -0.166755      -1.18938      -1.84067      -2.07606      -2.05065      -1.91576      -1.77986
        0.028       24.6758       24.5561       24.2366       23.6997       22.8917       21.7029       19.9212       16.6848       11.1529      -8.94908      -23.8991      -23.1316      -23.0521      -23.0699      -24.2247      -26.3804      -27.6183      -31.2017      -32.4784      -32.0574      -42.9964      -35.3729      -27.7646      -27.0878      -25.1674      -21.0948      -11.5877       -4.9256      -2.40271      -2.12402      -2.67697      -3.24435       -3.5368      -3.89861      -3.76907      -3.12919     -0.773292      -2.36417      -3.11878      -3.80675       -4.6351      -5.22628      -5.42492      -5.36876      -5.20243      -5.04112
         0.03       23.6739       23.5592        23.239       22.6953       21.8775       20.6807       18.8997       15.6942       10.3263      -8.64554      -22.6694      -22.0021      -22.2922       -21.448      -22.5982      -24.4966      -28.4326      -30.2214       -30.262      -25.3216      -30.8312      -29.0771      -27.2141      -24.6057      -24.8111      -22.3767      -15.8304      -9.17509      -4.64548      -2.39057      -2.27024      -2.74494      -3.32418      -3.77236       -3.9325      -3.82549      -1.90482      -3.28227      -4.10485      -4.62291      -5.24403      -5.78876      -5.96362      -5.88976      -5.70392      -5.52661
        0.032       22.1341        22.025       21.7057       21.1578       20.3302       19.1154       17.3194        14.095       8.69521      -10.2795       -23.827      -22.1592      -22.0981      -22.4942      -23.7978      -25.3091      -26.8731      -28.7811      -28.3801       -23.865      -21.4179      -26.2355      -26.5243      -25.9939      -25.4566        -23.74      -19.2715       -13.993      -8.33358      -3.47534      -2.22444       -2.2828      -2.91966      -3.84081      -4.33923      -4.43882      -2.76717      -4.42844      -5.31135      -5.72224      -6.11864      -6.63552      -6.80594      -6.73155      -6.54238      -6.36201
        0.034       25.4047       25.2935        24.962       24.3903       23.5228       22.2436       20.3595       16.9762       11.3114      -8.65508        -22.26      -21.6473      -21.8479      -21.1894      -21.5002      -24.5363       -26.566      -27.1678      -24.7015      -18.9925      -17.3755      -20.8781      -21.8943      -21.5278      -21.4113      -19.5994      -15.8191       -11.738      -6.57399     -0.513009        1.9122       2.52651       2.00467      0.687999     -0.245857     -0.916655      0.552178      -1.27639      -2.31593      -2.67123      -2.82277      -3.30528       -3.4647      -3.38447      -3.19013      -3.00731
        0.036        26.191        26.081       25.7419       25.1534       24.2539       22.9223       20.9436       17.3663       11.3163      -10.3085      -25.8812      -25.2273      -24.5421      -24.7694      -23.8977      -24.2121      -27.0677      -27.6913      -20.2061      -21.5912      -20.5856      -20.1156      -19.4701      -18.1696      -18.0411      -16.0155      -12.5595      -9.39297      -5.22647      0.546586          3.48       4.64895       4.44032       3.09752       1.83008       0.94045       2.50909    -0.0912756      -1.32219      -1.65643      -1.52632      -1.95745      -2.09505      -2.00285      -1.80154      -1.61635
        0.038       23.5515       23.4485       23.1129       22.5247       21.6195       20.2718       18.2553        14.576       8.30747      -14.6356      -30.6125      -30.8344      -31.2977      -29.7434      -25.7094       -26.867      -32.1652      -27.2085      -23.4352      -24.4454      -24.8151      -23.4788      -21.7143       -20.164      -18.0073      -15.6041       -12.666      -9.72184      -6.23692      -1.30338        1.6215       3.15502       3.30595       2.15489      0.831193     -0.325148       1.04559      -1.62508      -2.92423        -3.252      -2.84016      -3.20523      -3.30454      -3.17887      -2.94674      -2.73841
         0.04       25.7042       25.6066       25.2719       24.6812       23.7682       22.4039       20.3522        16.563       10.0469      -14.4003      -31.0436      -31.2057      -30.9293      -30.0567      -28.4208      -31.2037      -31.7736      -22.5294      -25.5666      -23.8493      -24.9486      -23.1147      -20.8656      -19.0075      -15.6822      -10.8846      -8.11646      -6.08669      -3.41182      0.764759        3.5452       5.40614       5.98907       5.09633       3.72148       2.41234         3.327      0.800824     -0.456908     -0.791603     -0.172256     -0.485722     -0.553451     -0.389826     -0.112897      0.134157
        0.042       29.6708       29.5818       29.2514       28.6633       27.7494       26.3748       24.2953       20.4221       13.6905      -12.0699      -30.5308      -30.1602      -30.3451      -31.1553      -31.5616      -32.2015      -26.8338      -21.9543      -21.0689      -23.0368      -24.0114      -22.8085      -20.8979      -19.5844      -10.4975      -6.66639      -4.88347      -2.79241    -0.0411553       4.19199       7.01144       9.02887        9.9467       9.42247       8.07783       6.65613       7.67529       4.32188       3.15848       2.74883       3.54462       3.27122       3.23712       3.45458       3.80345       4.11536
        0.044       28.7264       28.6473       28.3219       27.7384       26.8283        25.455       23.3714         19.48       12.6998      -12.3172      -30.6904      -29.2611      -31.4962      -34.8064      -35.5567      -35.1706      -32.2587      -26.1073       -25.648      -26.3292      -25.4361      -24.4178      -25.6076      -23.7982      -13.3387      -10.6805      -8.28451      -5.62492      -2.09282       2.48928       5.61846       8.02473       9.30289       9.20089       8.04336       6.65816        7.7642       3.46402       2.58221       2.05814       2.98081       2.74483       2.74833       3.02298       3.45109       3.83444
        0.046       26.6265       26.5594       26.2434       25.6704       24.7736       23.4178       21.3541       17.4737       10.6689      -14.3513      -29.8854      -32.9914      -38.2825      -38.2365      -36.5447      -34.5728      -36.0105      -39.8876      -32.9801      -27.8294      -23.0404      -29.3091      -21.2997      -19.6258      -19.7058      -15.9376      -13.4939      -10.3537      -6.62756      -2.05341        1.4204       4.54232       6.65149       7.35791       6.47765       5.16242       5.58963       1.58496       1.17193      0.452946       1.37588       1.13871        1.1253       1.39852       1.86017       2.28547
        0.048       24.7395        24.689       24.3882       23.8344       22.9636       21.6425       19.6231       15.8258       9.12035      -16.7176       -35.553      -37.9901      -37.7114      -37.3641      -34.4567      -36.9219      -46.4918      -50.6554       -48.756      -28.9753      -25.4547      -20.3806      -17.5375      -17.1278      -20.6181      -18.5248      -17.2917       -14.271      -11.4898       -7.2428      -3.57318      0.106692       3.14762       5.12306       4.89384       3.83771       3.84037     -0.328329     -0.189687       -1.1765     -0.232943     -0.507808     -0.581546     -0.367863     0.0735823      0.496539
         0.05       27.6509       27.6136       27.3231        26.781       25.9281       24.6337        22.668       18.9854       12.4928      -13.5411      -33.9246      -31.3478      -30.4943      -31.1622      -32.1685      -36.4721      -43.0248      -58.4649       -50.947      -35.2328      -23.7778      -16.3338       -11.825      -12.1106      -14.7857      -16.7046      -15.7309      -13.9431      -11.9684       -8.0966      -4.61902     -0.776956       2.78611       5.99834       6.69051       6.22812       5.78249       1.98539        2.5223       1.37182        2.2619        1.9687       1.80955       1.91628        2.2813       2.64464
        0.052       22.9944       22.9748       22.7001       22.1765       21.3498       20.0955       18.1886       14.6454       8.47603      -14.7059      -31.0334      -30.8883      -33.7335      -35.4515      -36.1496      -43.6967       -53.643      -56.7507      -52.1906      -47.8954      -28.7585      -15.6233      -17.7524      -10.0858      -15.4464      -19.4126       -19.456      -19.2233       -17.939      -15.1867      -12.1946       -8.5403      -4.69015     -0.419593       1.29266       1.87857       1.96695      -1.98172      -1.11543      -2.25331      -1.31159      -1.58763      -1.80091      -1.80127       -1.5494      -1.30205
        0.054       22.0897       22.0775       21.8017       21.2685       20.4244        19.135        17.181       13.5531       7.21811      -16.9281      -35.7204      -35.3174      -34.1697      -35.7373      -41.2036      -49.0942      -51.5033      -53.5977      -45.9356      -50.8432      -2.57296     -0.248894      -12.6271      -10.1506      -12.2967       -15.385      -19.2986      -19.9113      -19.5118      -17.7865      -15.4318       -12.363      -8.77227      -4.01773      -1.32936      0.327222    -0.0367772      -2.65465      -1.61068       -2.4919      -1.53852      -1.72897      -1.96003      -2.05882      -1.95363      -1.87044
        0.056       32.7447       32.7374       32.4546       31.9016       31.0238       29.6759        27.633        23.818       17.0669      -9.30481       -26.758      -27.6339      -29.6343      -32.3657      -36.7012      -32.2892      -27.5237      -41.2474      -56.4704      -42.3919      -0.42204       22.1557       13.2138       12.0977     -0.603035      -3.48704      -9.17913      -10.3709      -10.6087      -9.39244       -7.4746      -5.09166      -2.26161       2.01738       4.88664       7.29199       6.80534       5.82348       7.02909       6.50952       7.53547         7.453       7.22052       7.04448       7.03442       6.99729
        0.058       39.2098       39.2183       38.9492       38.4067       37.5395        36.206       34.1813       30.3814       23.6383      -4.08561       -25.923      -23.6122      -24.9099      -24.9918      -23.1613      -23.5799      -25.3522      -49.9375      -50.3075      -13.1457       6.00366       17.6587       17.3239       15.2744       17.0722       5.66462        -1.884      -4.62111      -5.73162      -4.47124      -2.59697     -0.735836       1.35203       4.87994        7.6893       10.4911       11.2576       10.5249       11.8728       11.9067       13.0677       13.1453        12.946       12.7317       12.6667       12.6251
         0.06       28.3263       28.3556       28.1099       27.5919       26.7536       25.4566       23.4768       19.7513       13.1365      -13.6475      -31.7695      -32.5143      -33.9533      -33.3932      -35.3672      -34.7753      -65.3885      -49.3138      -44.1184      -35.7033      -21.9906      -4.29754        4.3093       6.24814       2.17478       2.26179      -7.69997      -13.8103      -16.9559      -15.5993      -13.6232      -11.2389       -9.3479      -6.27057      -3.50139     -0.285396        1.8416      0.801202       2.32194       3.13798       4.48067       4.69137       4.44422       4.08333       3.91479        4.0731
        0.062       26.8688        26.912         26.68       26.1724       25.3419       24.0481       22.0565       18.2799       11.4807      -15.7861      -40.1686      -35.0442      -34.0243       -33.222      -29.3645      -40.2873      -45.9224      -49.3189      -44.7121      -35.0215      -30.8651       -18.377      0.893426       8.66997      0.115803       1.03725      -1.72615      -11.4479      -18.4775      -19.1902       -17.543      -14.9551      -12.8472      -9.16954      -6.19942      -2.83196      0.168823      -1.37888      0.165056       1.94562       3.47342       3.66961       3.16113       2.40132       2.02326       2.72346
        0.064       31.1672       31.2255       31.0116       30.5224       29.7145       28.4645       26.5361       22.8912        16.439      -8.81204      -24.5772      -26.1827      -27.2599      -28.4736      -28.6923      -38.0465      -37.7386      -41.5675      -36.6696      -34.4706      -31.7961      -24.3648      -8.59949       6.16055       11.0022        7.3192       6.34799     -0.903817      -10.6974        -15.71      -15.5195      -14.6818      -12.6053      -7.73741      -4.09403     -0.783308       1.87069      0.447303       1.98563       5.25427       7.06394       7.16488       6.22287         4.964       4.37201       5.74021
        0.066       22.7677       22.8418       22.6509       22.1859       21.4048       20.1863       18.2936        14.691       8.27767       -17.147       -36.524       -37.157      -37.0325       -35.592      -36.3307      -40.7254      -44.0744      -44.4548      -43.7887      -42.2058       -40.018       -36.736      -26.5146      -9.43913      -1.24707     -0.165862      -1.26064      -4.34582      -12.9632      -21.2391      -24.2233      -25.8898      -24.2393      -17.6102      -13.0936      -9.71471      -8.28822      -9.17239      -7.29938      -2.00655      0.190843     0.0893695      -1.11321      -2.55526      -3.17108      -1.60036
        0.068       23.3469        23.435       23.2638       22.8183       22.0569       20.8614       18.9939       15.4314       9.07675      -16.0354      -36.0405      -36.4495      -36.1772      -35.4471      -45.1619      -41.0113      -37.4258      -41.9115      -44.0478      -42.6325      -39.6691      -39.1108      -30.6674      -17.1336      -7.33928       1.14244     -0.267494      -4.74985      -8.79329      -16.7452      -22.5806      -28.6382      -29.9195      -21.1144        -15.25        -11.81      -10.7515      -12.8622      -9.69516      -2.14257     0.0474277     -0.413631       -1.1064      -2.02128      -2.40278      -1.31503
         0.07       29.0302       29.1299       28.9787       28.5533       27.8115       26.6272       24.7788       21.2653       14.9926      -9.30776      -27.7687      -27.2389      -28.7747      -34.1236      -31.1907      -32.5092      -30.7056      -34.2866      -36.5614      -37.1916      -36.6771      -32.6087      -25.1177      -19.0793      -10.1293       2.21537       8.57513       2.73593      -2.42169      -5.41063      -11.6392      -20.6851       -27.183      -22.6439      -16.4458      -11.9518      -9.57525      -13.1961      -7.17176       1.89094       2.66606       2.47453       3.22053       3.04715       2.73829       2.09101
        0.072       26.6688       26.7831       26.6597       26.2663       25.5605       24.4206       22.6371       19.2384       13.1939      -10.1989      -27.2187      -27.5436      -32.0833      -28.6085      -26.9076      -29.0711      -33.4942      -36.0135       -37.872      -37.1744      -34.1992      -31.3507      -30.8784       -26.462      -20.3729      -4.16301       3.28323       3.48499      0.643248      -4.18349      -7.93816      -15.3717      -24.5166      -28.3316      -26.0311      -20.7777      -16.0751      -20.4026      -7.46576      -1.28744      -2.07552      -1.36469     0.0741924     -0.410539       -1.4919      -2.66654
        0.074       23.8344       23.9623        23.869       23.5102       22.8409       21.7421       20.0124       16.7142       10.8928      -11.4767      -25.1226      -28.3934      -28.4593      -29.2363      -33.2366      -35.1879      -37.3677      -38.9538      -37.6633      -37.3284      -37.3183      -37.1345      -35.1816      -34.5571      -28.5175      -11.9207      -3.63631       5.20462      -3.45341      -2.80491      -5.35229      -9.70289      -16.3654      -27.4425      -31.5082      -28.3165      -21.2203      -25.2245      -11.5041      -6.95678       -7.4756      -5.93499      -5.39268       -5.9136        -6.699      -7.21691
        0.076       23.9219       24.0641       23.9983       23.6692       23.0267        21.948       20.2332       16.9557       11.1525      -10.1071      -25.6187      -26.4868      -27.7267      -30.7007      -33.2675      -36.5945      -33.5441        -32.99      -37.0316       -35.918      -37.8864      -36.2302      -36.6095      -36.2843       -31.035      -16.7957      -7.11523      -1.72548       6.39637     -0.673781      -1.32651      -3.35324      -7.25319      -16.5402      -27.1332      -30.2308      -24.4265      -21.3396      -12.4348      -10.2307      -9.67657       -7.8408      -7.68725      -7.60751       -7.3866      -7.92226
        0.078       25.5699       25.7303       25.7014       25.4127       24.8083       23.7602        22.078       18.8658        13.129      -7.03325      -19.9384      -20.8688      -25.2158      -28.0144      -30.3499      -30.4744      -30.1228      -32.6198       -33.678      -33.6357      -38.0945      -34.0459      -35.8927      -34.2234      -27.4501      -17.5794      -7.89076      -3.35173       2.74362       3.38135       2.36034      0.608377     -0.659521      -5.53252      -17.9672      -32.1516      -26.1036      -19.6098      -10.5388      -10.4709       -9.1317      -7.28063      -6.95693      -6.22353      -5.80798      -6.90414
         0.08       23.3867       23.5654       23.5782       23.3365       22.7776       21.7813        20.161        17.032       11.4488      -8.60722      -22.6749      -24.6446      -31.0445      -30.3726      -32.2227      -34.3058       -27.571      -32.7723      -33.7008      -33.8866      -37.0882      -39.3388      -35.5627      -36.1942      -34.6958      -21.6728      -14.0953      -7.37679       -2.5512       4.84186       1.71034       1.28785     -0.840767      -4.12977      -10.5502      -24.3499      -23.1413      -25.2206      -13.5814      -10.9075      -10.3994      -8.61903      -7.97213      -7.29805       -6.6888      -7.61362
        0.082       22.0559       22.2569       22.3138       22.1159       21.5894       20.6179       19.0034       15.8335       10.0597      -12.9175      -29.1536      -26.4883      -28.7288      -30.8149      -32.5917      -35.9931      -26.4309      -33.1967      -31.3287      -35.0018      -32.6704      -33.8656      -35.1925      -37.0126      -38.7697       -27.008      -19.0361      -11.0671      -5.13428      0.520975       3.19776       1.71417      0.252908      -1.95472      -4.66498      -11.3072       -14.902       -24.174      -17.1442      -12.3206      -11.0902      -8.94845       -8.4596      -7.96159      -6.50728      -7.01123
        0.084       19.8632       20.0946       20.2093        20.072       19.6004        18.681        17.134       14.0903       8.55926      -13.6155       -29.206      -30.3195        -33.16      -33.9026      -32.7309      -31.8065      -31.1168      -32.8007      -33.0764      -35.9492      -35.5785      -36.6848      -37.2839      -41.7466      -37.6039      -32.7161      -24.6818      -15.9283       -10.072      -5.43953     -0.257348       1.18632       1.09472       -2.4512      -3.67602      -5.81239      -7.31116      -18.9947      -17.0849      -16.1221      -12.7853      -10.6726      -10.2407      -9.11184       -7.2952      -5.86417