# Probe 0 (-0.091 0 0.008)
# Probe 1 (-0.091 0 0.016)
# Probe 2 (-0.091 0 0.024)
# Probe 3 (-0.091 0 0.032)
# Probe 4 (-0.091 0 0.04)
# Probe 5 (-0.091 0 0.048)
# Probe 6 (-0.091 0 0.056)
# Probe 7 (-0.091 0 0.064)
# Probe 8 (-0.091 0 0.072)
# Probe 9 (-0.091 0 0.08)
# Probe 10 (-0.0894 0 0.080016)
# Probe 11 (-0.0878 0 0.080016)
# Probe 12 (-0.0854 0 0.080016)
# Probe 13 (-0.083 0 0.080016)
# Probe 14 (-0.079 0 0.080016)
# Probe 15 (-0.075 0 0.080016)
# Probe 16 (-0.067 0 0.080016)
# Probe 17 (-0.059 0 0.080016)
# Probe 18 (-0.051 0 0.080016)
# Probe 19 (-0.043 0 0.080016)
# Probe 20 (-0.035 0 0.080016)
# Probe 21 (-0.027 0 0.080016)
# Probe 22 (-0.019 0 0.080016)
# Probe 23 (-0.011 0 0.080016)
# Probe 24 (-0.003 0 0.080016)
# Probe 25 (0.005 0 0.080016)
# Probe 26 (0.013 0 0.080016)
# Probe 27 (0.021 0 0.080016)
# Probe 28 (0.029 0 0.080016)
# Probe 29 (0.037 0 0.080016)
# Probe 30 (0.045 0 0.080016)
# Probe 31 (0.053 0 0.080016)
# Probe 32 (0.061 0 0.080016)
# Probe 33 (0.069 0 0.080016)
# Probe 34 (0.077 0 0.080016)
# Probe 35 (0.085 0 0.080016)
# Probe 36 (0.091 0 0.080016)
# Probe 37 (0.091 0 0.072016)
# Probe 38 (0.091 0 0.064016)
# Probe 39 (0.091 0 0.056016)
# Probe 40 (0.091 0 0.048016)
# Probe 41 (0.091 0 0.040016)
# Probe 42 (0.091 0 0.032016)
# Probe 43 (0.091 0 0.024016)
# Probe 44 (0.091 0 0.016016)
# Probe 45 (0.091 0 0.008016)
#       Probe             0             1             2             3             4             5             6             7             8             9            10            11            12            13            14            15            16            17            18            19            20            21            22            23            24            25            26            27            28            29            30            31            32            33            34            35            36            37            38            39            40            41            42            43            44            45
#        Time
        3.522       9.30468       9.81445       9.22894       9.95018       10.7765       10.8998       11.3797       11.3248       9.93937      0.705941      -8.55116       -9.1437      -10.4912      -10.4767      -10.4586      -11.3855       -11.527      -12.9766       -14.004      -9.76366      -7.45906      -8.63079      -6.50247      -4.83039       -7.5249      -5.21149      -4.47924      -4.93414      -5.42939      -4.62992      -3.70902         -3.03      -2.60289      -2.59009       -1.8467      -1.08707      -1.12003     -0.860754      -1.36346      -1.42841      -2.12139      -2.21535      -2.30018      -2.20074      -1.51781      -1.69239
        3.524        3.4016       3.25371       3.14411       4.08796       5.04844       4.61355       5.08733       4.85006       2.97948      -7.81549      -18.2633      -16.6752      -17.6659      -18.1274      -18.1383      -18.4066       -18.831      -17.6511      -18.8873      -17.5162      -14.9665      -15.4702      -12.5127      -11.4828      -10.8668      -10.3965      -9.12598      -9.44262      -10.3084      -10.0343      -9.39875      -9.00473       -8.5696      -8.42308      -7.95173      -6.89236      -6.78543      -6.39382       -6.6547      -7.01312      -7.44271      -7.51095      -7.56548      -7.41756      -6.68307      -6.98251
        3.526       3.88833       3.35908       3.82687        4.6086       5.06629       4.61465       5.22434       4.96445       2.81723      -9.00464      -19.7042      -19.4816      -20.0413      -19.7395      -20.3828      -20.3311      -20.0419      -17.7659      -16.9061       -18.474      -16.7906      -13.1023      -14.8124      -11.9843      -11.0349      -10.3711      -7.98235      -8.11895      -9.27008      -9.71489      -9.55334      -9.32574       -9.1135      -9.16265      -8.10223       -7.3652      -6.53469      -6.57415      -6.55516      -7.11768      -7.43043      -7.48765      -7.47648      -7.25995      -6.62719      -7.00149
        3.528       9.16396       9.47774       10.3294         10.52       10.5786       10.3264       11.0349       10.8401       8.50475      -3.69708        -13.62      -13.9239      -15.4694      -15.7413      -15.9003      -15.5174      -15.5522      -11.7452       -10.038      -8.76927      -11.0184      -5.65621      -6.93659      -8.00016      -7.03817      -6.23988      -2.26748      -1.74401      -3.05507      -4.24478      -4.58003      -4.40033      -4.51027       -5.0772      -4.33289      -2.95747      -1.82284      -2.05668      -1.97635      -2.44951      -2.74222      -2.79047      -2.69536      -2.46043      -1.99747      -2.24258
         3.53       5.36096       5.85837       6.74524       6.29924       6.28063       6.19367       6.94596       6.90765       4.62168      -8.42604      -20.7327      -19.5067      -19.4334      -20.0125      -20.6561      -20.3594      -19.5327      -19.0696      -16.3268      -11.9981      -10.8871      -13.9718      -16.4853      -12.9799      -11.5456      -7.99116      -7.54997      -4.84984      -5.54855       -7.2562       -7.9349      -7.87738       -8.1671      -8.95997      -8.67682      -7.51799      -5.96414      -5.68054      -5.67279       -5.8729      -6.12315      -6.10252      -5.90724      -5.76204      -5.30864      -5.35366
        3.532      0.337256       0.94631       1.37362      0.662197      0.711795      0.746704       1.50566       1.57142     -0.463628      -14.2658      -27.9284      -27.7976       -27.031      -26.2405      -24.8496      -24.5349       -26.838      -25.5505      -25.4222       -17.807      -14.1696      -15.3844      -19.0977      -17.7912      -16.4744      -14.9173      -12.0604      -10.8122      -9.32863      -10.9755      -11.9647      -12.2248      -12.5446       -13.316      -13.2512      -12.5117       -11.002      -10.2057      -10.2829      -10.2699      -10.4395      -10.3035      -10.1553      -10.0283       -9.4555      -9.43441
        3.534       5.22198       5.96146       5.73644       5.01058       5.12114       5.28878       6.05406       6.21739       4.36408      -8.88997      -21.3749      -21.9668      -22.5741      -22.2737      -21.6334      -21.3334         -21.7      -21.4941      -19.7256      -13.7482      -8.74446      -8.66977      -10.1279      -13.0871      -11.0161      -11.2513      -9.73098      -7.25332      -4.98624      -5.72713      -6.92342      -7.54897      -8.01436       -8.7703      -8.92466       -8.7046      -7.61583      -6.45612      -6.51664      -6.47435      -6.50267      -6.33302      -6.66438      -6.08698      -5.17479      -5.41401
        3.536        4.0715       4.61737       4.16249       3.52314       3.62155       3.90141       4.68166        5.0764        3.5048      -9.14496      -22.0455      -21.1324      -21.1806      -21.7142      -22.5799      -23.0542      -22.6224       -22.924      -21.0236      -15.9323      -10.7907        -8.775      -8.95099      -9.54672      -9.99985      -11.6742      -12.4223       -9.8615       -7.3208      -6.02861      -7.03114      -7.83952       -8.4289       -9.1232      -9.38836      -9.48863      -9.32621      -7.63082      -7.55827      -7.53165       -7.2888      -7.66537      -7.84033      -6.20176      -5.46978      -5.98485
        3.538         2.255       2.36865       1.88634       1.49395       1.54656       1.88846        2.6105        3.1975       1.99816      -9.46256      -20.8692      -21.1155       -21.557       -21.638      -22.2416      -22.4946      -23.2868      -22.1354      -22.5227      -17.1578      -13.3454      -10.2703      -7.71712      -8.08715      -8.15778      -11.5113      -13.7876      -12.8177      -10.5708       -7.5583      -7.92938      -8.62317       -9.1819      -9.77216      -10.0922       -10.312      -10.7976      -9.15635      -8.96481      -8.88985      -8.61437      -9.85543      -8.42469      -6.35606      -6.52525      -7.03445
         3.54       5.50361       5.48213       4.81529       4.72863       4.73918        5.1137       5.70355       6.36885       5.47499      -5.08396      -16.1087      -15.4087      -15.7666      -15.8621      -16.6551       -17.112      -17.5065      -16.9576      -18.0987      -15.2806      -10.9402       -7.6744      -4.78868      -4.75306      -3.67183      -6.50476      -9.17372      -9.80849      -8.78673      -5.40807      -4.89991      -5.17719      -5.56898      -5.94268      -6.29064      -6.65637       -7.5098      -6.26126      -6.05022      -5.72221       -6.5112      -6.43981      -4.99827      -3.18598      -3.68815      -3.73621
        3.542       9.17169       9.25964        8.3906       8.54022       8.53192       8.95988       9.43409       10.0171       9.43272      -0.38479      -10.8429      -10.8066      -11.6379      -10.8059      -10.8754      -10.9811      -11.9241       -12.071      -12.8661        -11.03      -8.67215      -5.10795     -0.886492     -0.188139      -2.30793     -0.818285      -3.81622       -5.2204      -5.45049      -3.43443      -2.16804      -1.85474      -1.95378      -1.99292      -2.13537      -2.57204       -3.6561      -2.93911      -2.73829      -2.46927      -4.14578      -2.47155     -0.989915    -0.0784351     -0.693674      -1.00852
        3.544       3.03079        3.1907       2.26467       2.57682       2.56973       3.13143       3.52247       3.94502        3.5257      -6.28994      -15.9263      -15.4607      -16.3688      -16.7753      -16.6056      -15.9706      -16.3955      -17.4639      -17.4896        -17.35      -16.5139      -13.9361      -7.36224      -6.06644      -5.82801      -5.31711      -7.21566      -8.97178      -9.79333       -9.7406      -8.61255      -7.72491      -7.41516      -7.00633      -6.62924      -6.82242      -7.78213      -7.70227      -7.51899      -7.96696      -8.48454      -7.38358       -4.9811      -4.81119       -5.6695      -6.43007
        3.546      0.295872      0.395305     -0.455895    -0.0707964    -0.0777107      0.628053      0.939949       1.09293      0.417556      -9.47827      -19.0967      -18.6699      -18.7737       -18.349      -18.9216       -18.517      -19.4333      -19.6555       -19.107      -20.1188         -20.2      -15.7539      -12.0129       -8.9941      -8.00758      -6.98333      -7.84385      -9.69593      -10.7235      -11.9608      -11.9187      -11.0887      -10.4276      -9.64971      -8.74379        -8.377      -8.97548      -9.63896      -9.66939      -11.0848      -9.67855      -8.85657      -8.07301      -7.00625      -7.88305      -8.71121
        3.548       9.35818       9.29517       8.63958       8.96912       8.99261       9.68817       9.82487       9.43579       8.13639      -1.25202      -11.2796      -11.0798       -11.076       -11.003      -10.2132      -9.48226      -10.1537      -10.9905      -9.92574      -10.5943      -10.8457      -8.83709       -4.4001      -2.43603     -0.233116      0.816951      0.574579     -0.351132      -1.19469      -3.12561      -4.03505      -4.09297      -3.52584      -2.57309       -1.4722     -0.471125     -0.544871      -1.92981      -2.28384      -3.88832      -2.37366       -1.6721        -1.368    -0.0266821     -0.706542      -1.53518
         3.55       5.63342       5.39377       5.02656        5.1996       5.33413        5.8251        5.7112       4.84945       3.24855      -5.10452      -16.1884      -16.0697      -14.8002      -15.0494      -15.2019      -14.6773      -13.2512      -15.1359      -14.5594      -13.1238      -15.0434      -13.9815      -9.31375       -5.8747      -3.72672      -2.37548      -2.35956      -2.96516      -3.38189       -5.2196      -6.60932      -7.50682       -7.6569      -6.65035      -5.57526      -4.17059      -3.58744      -4.90203      -6.19297      -5.95413      -5.52552       -5.1829      -4.67178      -3.59816      -4.11058      -4.83216
        3.552       1.91516       1.59315       1.49766       1.47305       1.77912       1.91414       1.58445      0.471514      -1.24742      -9.29339       -20.528      -20.9486      -22.4294      -20.3567      -18.8458      -19.8373      -17.6294      -18.2757      -17.7472      -17.4011      -18.6305       -17.481      -14.3125      -9.86608      -8.42592      -5.12893      -4.86425      -6.00766      -6.53639      -7.02362      -8.75048      -9.99182      -11.0234      -10.5501      -9.53407      -8.41111      -7.40382      -8.12661      -10.0919      -8.80801      -8.69856      -8.50863       -7.7685      -7.20312      -7.52857      -8.11533
        3.554       5.82794       5.56134       5.66567       5.52023       5.94487       5.75098       5.32728       4.01339       1.98494      -6.93948      -19.4281      -19.0421      -20.0133      -21.0033      -16.0627      -17.0171      -16.2796      -13.8288      -14.4836      -13.1202      -13.7972      -14.2824      -12.1919      -9.15456      -6.34352      -1.33568        -0.895      -1.94731      -3.28028        -2.776      -3.91255      -5.56556      -6.91386      -7.61978      -6.79219      -6.01017      -5.22804      -5.73849      -6.58704      -5.92812      -5.87332      -5.55557      -4.67671      -4.58053      -4.69658      -5.20301
        3.556       8.52432       8.38571       8.67542       8.51899        8.9347       8.54773       8.01824       6.57934       4.04727       -5.4198      -18.0211       -18.189      -20.1639      -21.1393      -19.5084      -16.9136      -14.6458      -11.1522      -11.7072      -11.9566      -12.2761      -12.9634      -11.6421      -7.73945      -5.01182      -1.47087      0.815509       1.05279     -0.502922     -0.809463     -0.477227      -2.09788      -3.41262      -5.07064      -5.00442      -4.11923      -3.77514      -4.60758      -4.01167       -4.1647      -4.05582      -3.55313      -2.78666      -2.83999      -2.83869      -3.23091
        3.558       8.69655       8.78566       9.08058       8.98524       9.34871       8.79873       8.16115       6.67641       3.52989      -7.34207      -19.4149      -17.3249      -20.5651      -23.3246      -27.7524      -23.7493      -13.8633      -11.4239      -9.83195      -11.0912       -11.794      -13.2159      -11.7498      -9.75102      -6.34235      -3.80949     -0.392282       0.91525      0.257661      -1.05674      -0.85337     -0.832868      -2.17737      -3.98567      -5.05847      -4.25822      -3.98042      -4.99233      -4.11334      -4.37922      -4.03829      -3.60985      -2.99963       -3.1344      -3.14361      -3.22966
         3.56       10.2787       10.6374       10.6868       10.7489        11.093       10.4579       9.70969       8.22922       4.72225      -7.54676       -18.027      -19.4639      -22.6895      -24.4852      -28.3023      -30.0958      -12.4095      -10.4825      -8.37502      -8.95614      -10.1658      -11.3017      -11.4061      -11.2386      -6.30095      -4.44072      -1.48702      0.946733        1.2732      0.076904       0.28084      0.670444      0.238553      -1.50115      -3.33428      -3.51275      -3.06457      -3.51085      -3.10052      -3.06998      -2.99522      -2.60369      -1.85765      -2.13134      -2.42734      -2.10484
        3.562       11.9393       12.2869       12.1477       12.4258       12.9038       12.2231       11.3681       9.63648       6.00561      -7.45789      -14.8547      -16.2438      -20.9096      -26.2055       -23.633      -29.8128      -13.1492      -8.51594      -6.68825       -7.7524       -8.4575      -9.89601      -9.02533       -6.9642      -6.51627      -3.85541      -2.52609      0.268386       1.69358       1.15538       1.29523       1.39072       2.25639        1.0132     -0.943583      -2.49082      -2.38525      -2.15615      -2.03099       -2.1044      -2.03733      -1.65274     -0.749834     -0.957432      -1.53558      -1.21421
        3.564       10.9088       10.9598       10.9143       11.3729       12.0098       11.4788       10.5463       8.28823       4.38752       -11.707      -25.5776      -24.2066      -20.0267      -20.7648       -25.597      -27.2015      -23.1289      -14.0162      -9.77584      -8.78765      -8.82196      -10.5518      -9.84398      -10.2411      -9.62796      -6.16413      -4.20866        -3.344     -0.122216      0.015668     -0.729831      -0.26252     0.0297998       1.33264     -0.420032      -2.77314      -3.86332      -3.38527      -3.38117      -3.52492      -3.28915       -2.8236      -2.08845       -1.8472      -2.52189      -2.57791
        3.566       8.99865       8.88402       8.99215       9.56886       10.3391       9.89642       8.99817       6.60806       2.30405      -12.6419      -22.6337      -24.3478      -27.2136      -25.7836      -26.5293      -27.9401      -28.6669      -17.6451      -12.1691      -10.1776      -9.50057      -11.0013      -11.0406      -9.53807      -12.0508      -8.83255      -6.32604       -6.6583      -2.89363      -1.56243      -2.55524      -2.79651      -2.35815     -0.819468     -0.842569      -2.63515      -4.77493      -5.15134      -5.19247      -5.24607       -4.9502      -4.34371      -3.51883      -3.13902      -3.87544      -4.14244
        3.568       10.5965       10.3916       10.5644       11.2407       12.5611       12.3944        11.202       8.66772        4.1518      -12.0768      -23.8563      -22.6188      -22.4958       -23.699      -25.4742      -25.6562      -30.3927      -15.7698      -10.5522      -8.13314      -7.07996      -7.30464       -10.091      -7.77584      -9.94845      -7.89891      -5.48657      -5.83844      -2.79354     -0.159272     -0.892765      -1.77481      -1.79927      -1.35932     0.0294655     -0.408241      -1.63715      -3.65662      -3.79371      -3.87568      -3.56998      -2.87636      -1.88087      -1.70525      -2.25212      -2.67176
         3.57       12.2759        11.902       11.9717       13.2914       14.1192       13.4189        12.536       10.1764       5.90783       -10.254       -22.346      -22.4212       -22.332      -22.2408      -22.1795      -25.0049      -26.6633      -14.8083       -9.7898      -6.10181       -4.8632      -5.58473      -6.53885        -6.297      -7.15512      -6.56242      -4.82074      -4.77908      -2.21878     0.0437524      0.384328     -0.331054     -0.962986     -0.920794     -0.469553     -0.313912      0.117661       -2.0031      -2.21054      -2.36509      -2.07523      -1.59306     -0.655036     -0.451976      -0.71008      -1.30276
        3.572       9.09055       8.65874       9.31799       11.7856       10.8175       9.80329       9.02468        7.3847       3.40358      -12.4188      -24.6844      -24.1719      -24.2915      -24.6652      -26.4706      -26.1353      -29.5638      -22.2263      -15.5566      -10.9403       -7.4687      -8.94542      -8.08508      -8.34275      -8.93389       -8.7856      -7.76138      -7.71056      -5.62052      -4.15412      -3.01445      -3.21988      -3.69968      -4.23799      -4.16455      -4.12288      -3.76417      -4.59007      -4.59439      -4.70066       -4.4208      -4.18243      -3.52197      -2.97336       -3.2608      -3.81965
        3.574       8.62287       7.73755       10.2105       10.4582        10.301       9.65776       9.11165       7.78113        4.2823      -11.6099      -24.4279       -23.915       -23.663      -24.0013       -25.528      -26.3976      -28.4566      -24.1942      -19.3102      -13.1691      -9.39769      -9.80709      -8.21959      -7.76558      -8.78114      -9.00699      -8.07611      -8.12914      -6.87302      -5.67703       -4.6644      -4.10687      -4.31944      -4.74657      -4.99873      -4.75477      -5.09275      -5.41855      -5.12199      -5.06472      -4.92414      -4.69892      -4.06056      -3.33492      -3.84545      -4.22442
        3.576       9.84165       9.50759       11.6863       11.3809       11.8038        11.473       11.1002        10.031       6.85488      -7.82517      -20.3297      -19.9129      -20.2676      -20.7124      -21.4779      -19.9612      -26.6362      -23.7436      -21.5201      -14.8542      -10.2806      -8.91739      -7.56041      -6.06478      -7.25334      -7.32424      -6.66158      -6.94687      -6.30652      -5.49164      -4.71528       -3.8133      -3.65703      -3.81222      -4.09969      -4.15805      -3.68409      -4.89411      -4.48611      -4.33056      -4.41617      -4.12738      -3.22927      -2.53536      -3.18282      -3.44636
        3.578       12.1678       12.3063       13.5044       13.6284       14.8416       14.4889       13.8219       12.7901       10.2183      -3.93104      -16.8355      -16.6185      -16.8559      -16.5254      -16.0069      -16.3178      -19.1409      -20.4162      -19.5428      -13.8306      -10.1588      -7.46753      -6.40886      -3.51102      -4.31822      -4.70956      -4.29112      -4.45056      -4.28013      -3.92217      -3.47849      -2.61013      -2.03014      -2.12006      -2.13113      -2.26474      -1.85767      -2.94485      -2.80736      -2.68529      -2.88585      -2.49807      -1.34577     -0.929152      -1.55528      -1.71502
         3.58         13.72       13.7244       14.4292       15.0939       15.9465       15.5626       15.0039       14.1039       11.8495      -1.54312      -14.6879      -14.1638      -14.4195      -14.7577       -14.586       -15.382      -16.4368       -17.562      -17.4146      -15.6819      -11.1947      -8.70897      -4.76788      -2.64284      -2.22096      -2.78423       -2.8796      -2.74664      -2.89031       -2.9525      -2.87192      -2.21414      -1.43299      -1.24501      -1.25861        -1.258     -0.870201      -1.79544      -1.97229      -1.99888      -2.14234      -1.63719     -0.372276     -0.266147     -0.779663     -0.833786
        3.582       12.0137       11.6374       12.3339       12.9881       13.6935       13.3573       12.8129       12.0881       10.2696       -2.2636      -16.1591      -16.3585      -16.2798      -15.7364      -16.0704      -16.7928      -17.7348      -16.5429      -16.7444      -17.6537      -15.9269      -13.6873      -5.99017       -4.8698      -3.09928      -4.39861      -4.17076      -4.26059      -4.28863      -4.53464      -4.91325      -4.44852      -3.71221      -3.12018      -3.15459      -2.96451       -2.6345      -3.36768      -3.78915      -3.99764      -4.04256      -3.27121      -2.31625       -2.2801      -2.64026      -2.60018
        3.584       8.92841       8.46438       8.99265       9.47619       10.1244       9.83507       9.46258       9.13381       7.69481      -4.94088      -19.9589      -19.5356      -19.5511      -19.6915      -18.6126      -19.1756      -19.2763      -18.2455       -17.885      -19.7701      -20.0793      -17.3947      -10.9831      -9.04276      -6.53435      -8.49079      -6.07139      -7.23947      -6.78229      -6.76614      -7.63106      -7.51487      -6.83075      -6.02483      -5.83341      -5.68393      -5.59634      -5.98695      -6.49512      -6.85456      -6.88834      -5.69836       -5.1516       -5.1715      -5.37877      -5.26343
        3.586       6.67093       6.14048       6.51809        6.7105       7.63625       7.20382       7.04028       6.79025       5.32315      -7.68316      -21.9746      -21.7867       -21.959      -21.9715      -21.9808      -22.5678      -18.6087      -21.2283      -21.1865      -20.1493      -19.9748      -18.7015      -15.4006      -12.9789       -10.287      -11.1672      -8.37501      -8.95531      -8.77124       -8.0163      -9.03795      -9.44828      -9.08536      -8.18429      -7.73138       -7.5332      -7.44297       -7.8677      -8.35986      -8.85047      -8.79121      -7.55624      -7.07072      -7.20952      -7.30021      -7.11837
        3.588       8.97892       8.51907       8.54243       8.98412       9.92533       9.40488        9.0895       8.69594       7.16299      -5.41517      -19.2334      -19.1714      -19.4768      -19.6241      -20.2663      -20.3633      -16.9579      -17.4081      -17.7658       -18.409      -17.2026      -14.4483      -14.4804      -12.1812      -10.2642      -9.73884      -7.27756      -6.89943      -6.76646      -5.29102      -5.85562      -6.67679      -7.00326      -6.50627      -5.91027      -5.48055      -5.29124      -5.88877      -6.39802      -7.06105      -6.70017      -5.72779      -5.18462      -5.39085      -5.40999      -5.19018
         3.59       9.85428       9.26643       9.27926       9.63214       10.4031       10.0219       9.46469       9.16341       7.52021      -4.21342      -17.6584      -17.0352      -16.9979      -17.5745      -17.9657      -17.5285      -20.1199      -15.5971      -16.9394      -18.3299      -14.5296      -13.1793      -13.0296      -12.2886      -10.1572      -9.24493      -7.25366      -6.54083      -6.21141      -4.23308      -3.93242       -4.6561      -5.51963      -5.91781      -5.53684      -4.89015      -4.38199      -5.10029      -5.63948      -6.39646      -5.73801      -4.94565      -4.53351      -4.69764      -4.65929      -4.42421
        3.592       11.3002       10.4951       10.4503       10.8089       11.4888       11.2118       10.6278       10.0841       8.18822      -2.59377      -14.7655      -15.4786      -15.6992      -15.3874      -15.5669      -15.7857      -18.0574      -15.1418      -14.7887      -14.8033      -15.9357      -11.8887      -11.4321      -10.7095      -9.68408       -8.5263      -6.96643      -5.93803      -5.48397      -3.48102       -2.3801      -2.38187      -3.18918      -4.25912      -4.52215       -4.1206      -3.28963      -4.01398      -4.58309      -5.10678      -4.51401      -3.58617      -3.50641      -3.56277      -3.49252       -3.2636
        3.594       9.02404       7.98672       7.89918        8.5066       9.16807       9.02163       8.37023       7.25728       4.85841      -6.43551      -18.6144      -18.0126      -16.7489      -17.1387      -18.3087      -18.2567      -18.4618      -17.4141      -18.9915      -18.1003      -16.5435       -15.491      -14.8235      -14.1731       -12.397      -11.3146      -10.2416      -8.90944      -8.12268      -6.54764      -5.03777       -4.1698      -4.38621      -5.40256      -6.00379       -6.2455      -5.76791      -6.20593      -6.74699      -6.82599      -6.45125      -5.22781      -5.47754      -5.47573      -5.38598      -5.17149
        3.596       4.31857       3.11406       3.28061        4.2608       4.60616       4.29227       3.74695       2.41578     -0.567961      -12.7777      -23.2721      -23.2515      -23.7417      -22.9074      -22.0515       -22.593      -22.4899      -21.8122      -22.3531      -22.6478      -21.1775      -20.4811      -18.9964      -18.2359      -17.0764      -16.0342      -15.7167      -14.3929      -13.0554      -11.6766      -10.2851      -8.82203      -8.37914      -8.87885      -9.27511      -9.72963      -9.61924       -10.431      -10.7098      -10.5049      -10.0794      -8.94049      -9.23757      -9.24055      -9.13933      -8.92404
        3.598       11.9777       11.2242       11.8482        12.761       12.5329       12.0227        11.576       10.0776       6.80623      -6.34525      -17.6061      -17.7623      -18.7003      -19.3843      -16.7585      -14.4391      -16.0451      -14.8141      -13.6502      -13.6864      -12.9819       -13.188      -12.4522      -12.3115      -10.9125      -9.89248      -9.36122      -8.51101      -7.02885      -5.48143       -4.5022      -2.78696      -1.94262      -2.10991      -2.30939      -2.64094      -2.71547       -4.1991      -4.01472      -3.96847      -3.29859      -2.56733      -2.78044      -2.79207      -2.69452      -2.48844
          3.6       12.2464       12.2805       12.7904       13.2555       12.7829       12.2109       11.6834        10.245       7.91001      -5.86183      -20.0414      -20.4443      -21.3239      -22.2457      -21.4236      -18.7387      -15.5454      -13.7424      -12.7379      -11.5292      -12.1139      -12.1613      -13.9941        -11.65      -10.1914      -9.16328      -7.84282      -8.08919       -7.6006      -5.88707      -5.09773       -3.5852      -1.93038      -1.73919      -1.90864      -2.16011      -2.23648      -4.09149      -3.40035         -3.62      -2.70066      -2.34105      -2.49006      -2.49405      -2.40894      -2.22311
        3.602       8.29174        8.2145       8.46551       8.80318        8.3948       7.72981       6.98461       6.21276       4.07493      -10.3424      -26.7862      -26.9319      -24.8922      -24.4875      -27.4058      -28.0302      -20.9592      -19.4645       -16.161      -16.3693      -14.4896       -14.841      -13.5646      -14.3951      -14.3293      -12.7677      -9.08871      -9.97767      -11.4136      -10.5405      -9.63232      -8.55795      -6.18608      -5.19739      -4.90221      -5.30871      -5.45385      -7.50665      -6.60853      -6.94957      -5.86752      -5.85161      -5.92217      -5.91955      -5.87044      -5.70619
        3.604       6.93917       6.38806       6.73556       7.07843       6.66611       5.91932       5.29039        4.6739       2.44629      -11.6861      -27.0584      -26.6039      -27.3442      -27.5414      -30.0325      -32.7994       -27.242      -20.9059      -21.2225      -19.0988      -16.2306       -16.135       -13.342      -14.6768      -16.4603      -22.5769      -10.1347      -9.43435      -11.3405      -12.5051       -11.814      -10.9799      -8.62715      -7.14197      -6.19652      -5.86143      -6.15725      -8.33478      -7.72628      -8.00762      -7.04078      -7.22798      -7.26732      -7.28307      -7.29502      -7.15871