# Probe 0 (-0.35 0 0.005)
# Probe 1 (-0.35 0 0.0155)
# Probe 2 (-0.35 0 0.02653)
# Probe 3 (-0.35 0 0.0381)
# Probe 4 (-0.35 0 0.05026)
# Probe 5 (-0.35 0 0.06302)
# Probe 6 (-0.35 0 0.07642)
# Probe 7 (-0.35 0 0.08)
# Probe 8 (-0.35 0 0.09049)
# Probe 9 (-0.35 0 0.10527)
# Probe 10 (-0.35 0 0.12078)
# Probe 11 (-0.35 0 0.13707)
# Probe 12 (-0.35 0 0.15417)
# Probe 13 (-0.35 0 0.17213)
# Probe 14 (-0.35 0 0.19099)
# Probe 15 (-0.35 0 0.2)
# Probe 16 (-0.35 0 0.21079)
# Probe 17 (-0.35 0 0.23157)
# Probe 18 (-0.35 0 0.2534)
# Probe 19 (-0.35 0 0.27632)
# Probe 20 (-0.35 0 0.30039)
# Probe 21 (-0.35 0 0.32566)
# Probe 22 (-0.35 0 0.35219)
# Probe 23 (-0.35 0 0.38005)
# Probe 24 (-0.35 0 0.4093)
# Probe 25 (-0.35 0 0.44002)
# Probe 26 (-0.35 0 0.47227)
# Probe 27 (-0.35 0 0.50613)
# Probe 28 (-0.35 0 0.54169)
# Probe 29 (-0.35 0 0.57903)
# Probe 30 (-0.35 0 0.61823)
# Probe 31 (-0.35 0 0.65939)
# Probe 32 (-0.35 0 0.70261)
# Probe 33 (-0.35 0 0.74799)
# Probe 34 (-0.35 0 0.79564)
# Probe 35 (-0.35 0 0.84567)
# Probe 36 (-0.35 0 0.8982)
# Probe 37 (-0.35 0 0.95336)
# Probe 38 (-0.35 0 1.01128)
# Probe 39 (-0.35 0 1.0721)
# Probe 40 (-0.35 0 1.13595)
# Probe 41 (-0.35 0 1.203)
# Probe 42 (-0.35 0 1.2734)
# Probe 43 (-0.35 0 1.34732)
# Probe 44 (-0.35 0 1.42493)
# Probe 45 (-0.35 0 1.50643)
# Probe 46 (-0.35 0 1.592)
# Probe 47 (-0.35 0 1.68185)
# Probe 48 (-0.35 0 1.77619)
# Probe 49 (-0.35 0 1.87525)
# Probe 50 (-0.35 0 1.97927)
# Probe 51 (-0.35 0 2.08848)
# Probe 52 (-0.35 0 2.20315)
# Probe 53 (-0.35 0 2.32356)
# Probe 54 (-0.35 0 2.44999)
#       Probe             0             1             2             3             4             5             6             7             8             9            10            11            12            13            14            15            16            17            18            19            20            21            22            23            24            25            26            27            28            29            30            31            32            33            34            35            36            37            38            39            40            41            42            43            44            45            46            47            48            49            50            51            52            53            54
#        Time
        2.362      -5.05418      -4.69852       -4.7136       -4.7644      -4.79023      -5.61387      -5.08992      -5.01682      -5.14381      -5.24063      -5.57584      -5.87281      -6.17167      -6.24861      -6.41098      -6.52819      -6.66855       -6.9392        -7.249      -7.31624      -7.36348      -7.51709      -7.68868      -8.01663      -8.13247      -8.19402      -8.26809      -8.53396      -8.64608      -8.64608      -8.67079      -8.76695      -8.79706      -8.88873      -8.99396      -9.06491      -9.09656      -9.14699       -1e+300       -1e+300       -1e+300       -1e+300       -1e+300       -1e+300       -1e+300       -1e+300       -1e+300       -1e+300       -1e+300       -1e+300       -1e+300       -1e+300       -1e+300       -1e+300       -1e+300
        2.364      -4.53972      -4.26339      -4.38582       -4.1575      -4.41399      -4.96466       -4.4224      -4.44438      -4.62839      -4.85556      -5.05237      -5.65183      -5.92197      -6.13008      -6.30989      -6.42633      -6.54951      -6.79105      -7.11458      -7.16102      -7.11212      -7.30466      -7.46362      -7.68719      -7.78862      -7.82177      -7.91789      -8.14306      -8.26958      -8.26958      -8.32788      -8.38921      -8.39518      -8.46374       -8.5472       -8.5802       -8.6041      -8.62835       -1e+300       -1e+300       -1e+300       -1e+300       -1e+300       -1e+300       -1e+300       -1e+300       -1e+300       -1e+300       -1e+300       -1e+300       -1e+300       -1e+300       -1e+300       -1e+300       -1e+300
        2.366      -1.18305     -0.973432      -1.09062     -0.986657      -1.28383      -1.43365      -1.30633      -1.36574      -1.48645      -1.87114      -2.30339      -2.65024      -2.96059      -3.27586      -3.45893      -3.56647      -3.64023      -3.80357      -3.96948      -3.79444       -3.8665      -4.18244      -4.36663      -4.57978      -4.69783       -4.6678      -4.79183      -4.98061      -5.10074      -5.10074      -5.14426      -5.20124      -5.21225      -5.25575       -5.3164      -5.31522       -5.3273      -5.32947       -1e+300       -1e+300       -1e+300       -1e+300       -1e+300       -1e+300       -1e+300       -1e+300       -1e+300       -1e+300       -1e+300       -1e+300       -1e+300       -1e+300       -1e+300       -1e+300       -1e+300
        2.368       4.75664       4.89619       4.75811       4.70973       4.57205       4.41501       4.29998       4.23105       4.31056       3.62479       3.00707       2.80879       2.53585        2.2577        2.0886       2.01114       1.94895       1.94652        2.0698       2.18391       1.96926       1.63573       1.43257       1.17258       1.09984       1.06638      0.970368      0.830149      0.722211      0.722211      0.655288       0.62443      0.625942      0.605491      0.537143      0.564988      0.578711      0.587954       -1e+300       -1e+300       -1e+300       -1e+300       -1e+300       -1e+300       -1e+300       -1e+300       -1e+300       -1e+300       -1e+300       -1e+300       -1e+300       -1e+300       -1e+300       -1e+300       -1e+300
         2.37         -1.52      -1.45099      -1.74415      -1.69423      -1.78137      -2.16034      -2.33719      -2.47271      -2.60385      -2.99441      -3.17087      -3.88586       -4.3704      -4.40746       -4.4709      -4.50417      -4.54496      -4.38824      -4.35217      -4.42667       -4.6045      -4.85767      -5.10235      -5.42487      -5.47636      -5.56826      -5.66047      -5.78446      -5.82644      -5.82644      -5.90665      -5.93774      -5.95508      -5.98013      -6.09707      -6.04829      -6.02844      -6.01844       -1e+300       -1e+300       -1e+300       -1e+300       -1e+300       -1e+300       -1e+300       -1e+300       -1e+300       -1e+300       -1e+300       -1e+300       -1e+300       -1e+300       -1e+300       -1e+300       -1e+300
        2.372      -1.06527     -0.966465      -1.32816      -1.16491      -1.33225      -1.96765      -1.94081       -2.0975      -2.25154      -2.33752      -2.79667      -3.40275      -4.06876      -3.96297      -3.95606      -3.97164      -3.96524      -3.76469      -4.03274      -4.04889      -4.10621      -4.31029      -4.55886      -4.86544      -4.92381      -5.03956      -5.09248      -5.18239      -5.14221      -5.14221      -5.23874      -5.23671      -5.24125       -5.2368      -5.31301      -5.23846      -5.18983      -5.17366       -1e+300       -1e+300       -1e+300       -1e+300       -1e+300       -1e+300       -1e+300       -1e+300       -1e+300       -1e+300       -1e+300       -1e+300       -1e+300       -1e+300       -1e+300       -1e+300       -1e+300
        2.374        6.0096       6.02615       5.57322       5.77071       5.76964       5.23074       5.14823       5.07304       4.93352       4.45559       3.93043         3.452       3.39007       3.26142        3.2498       3.22768       3.24777       3.34915       3.03073       2.94318       3.08547        2.8214       2.68495       2.42338        2.3095       2.20899        2.2135       2.15372       2.21824       2.21824       2.15223       2.20405       2.21767       2.23087       2.16396       2.28074       2.35629       2.36934       -1e+300       -1e+300       -1e+300       -1e+300       -1e+300       -1e+300       -1e+300       -1e+300       -1e+300       -1e+300       -1e+300       -1e+300       -1e+300       -1e+300       -1e+300       -1e+300       -1e+300
        2.376     -0.133405     -0.371185     -0.790485     -0.755504     -0.618838      -1.00789      -1.07566      -1.15895       -1.4394      -2.05812      -2.19865      -2.32642      -2.53297      -2.79489      -2.92881      -2.97812      -2.99028      -2.93572      -3.13642      -3.39917      -3.24462      -3.57262      -3.57365       -3.7951      -4.04016      -4.15417      -4.09149      -4.14454      -4.09609      -4.09609      -4.13356      -4.10339      -4.10866      -4.13077      -4.24471      -4.11984      -4.05553       -4.0709       -1e+300       -1e+300       -1e+300       -1e+300       -1e+300       -1e+300       -1e+300       -1e+300       -1e+300       -1e+300       -1e+300       -1e+300       -1e+300       -1e+300       -1e+300       -1e+300       -1e+300
        2.378       1.58903       1.20261      0.971024       1.01358       1.00082      0.674159      0.423485      0.351454      0.268355     -0.283843     -0.222388     -0.446961     -0.846836      -1.12641      -1.27075      -1.40622      -1.41166      -1.67803      -1.43073      -1.62499      -1.63975      -1.98823      -1.98232       -2.1043      -2.50984      -2.63186      -2.50492      -2.52319       -2.5136       -2.5136      -2.54378      -2.54163      -2.56643      -2.62615      -2.77231      -2.64199      -2.58782      -2.62708       -1e+300       -1e+300       -1e+300       -1e+300       -1e+300       -1e+300       -1e+300       -1e+300       -1e+300       -1e+300       -1e+300       -1e+300       -1e+300       -1e+300       -1e+300       -1e+300       -1e+300
         2.38       2.59895       2.19205         2.063        2.2249       2.07277       1.70137       1.52196        1.5247       1.35957       0.90082       0.89264      0.509492    0.00785886     -0.341949     -0.515779     -0.571688     -0.604676      -1.20855     -0.365506     -0.479342     -0.620747     -0.894931      -1.05408       -1.0397      -1.49727      -1.66786      -1.52664      -1.52816       -1.5003       -1.5003      -1.51418      -1.53814      -1.56528      -1.65562      -1.77983      -1.65025      -1.60134      -1.63863       -1e+300       -1e+300       -1e+300       -1e+300       -1e+300       -1e+300       -1e+300       -1e+300       -1e+300       -1e+300       -1e+300       -1e+300       -1e+300       -1e+300       -1e+300       -1e+300       -1e+300
        2.382       2.16697       1.80558       1.69538       1.73006       1.59553       1.25573       1.13809       1.05265      0.865214      0.536058      0.421078     0.0878784     -0.479723     -0.968793      -1.03938      -1.02376      -1.08334      -1.26389      -0.68413     -0.810797     -0.852574      -1.03996      -1.31103       -1.4079      -1.72704      -1.86744      -1.67233      -1.61339       -1.4914       -1.4914      -1.50496       -1.5057      -1.48837      -1.55045      -1.60768      -1.45225       -1.3953      -1.42041       -1e+300       -1e+300       -1e+300       -1e+300       -1e+300       -1e+300       -1e+300       -1e+300       -1e+300       -1e+300       -1e+300       -1e+300       -1e+300       -1e+300       -1e+300       -1e+300       -1e+300
        2.384        3.9495        3.6967        3.5106       3.54093       3.40866        3.0218       2.96211       2.91515       2.79778       2.56357       2.31662       1.97156       1.42441      0.976341       1.01068       1.04366      0.956228       0.76225        0.9846      0.989409       1.04129      0.860796      0.578997      0.441537      0.252131       0.19448      0.416156      0.529252      0.686022      0.686022      0.624267      0.635525      0.696068      0.676516      0.635928      0.811235      0.857417      0.830902       -1e+300       -1e+300       -1e+300       -1e+300       -1e+300       -1e+300       -1e+300       -1e+300       -1e+300       -1e+300       -1e+300       -1e+300       -1e+300       -1e+300       -1e+300       -1e+300       -1e+300
        2.386      -0.53255     -0.648554     -0.886069     -0.779679     -0.933105      -1.32111      -1.37558      -1.38012      -1.41728       -1.5165      -1.87306      -2.35158      -2.80422      -3.06814      -3.04076      -3.03413      -3.11907      -3.41303      -3.66412      -3.60211      -3.68765      -3.72889      -3.94962      -4.15528      -4.26531      -4.25085      -4.01544      -3.88203      -3.80505      -3.80505      -3.80671      -3.82366      -3.78975      -3.82677      -3.81235      -3.64643      -3.60746      -3.61956       -1e+300       -1e+300       -1e+300       -1e+300       -1e+300       -1e+300       -1e+300       -1e+300       -1e+300       -1e+300       -1e+300       -1e+300       -1e+300       -1e+300       -1e+300       -1e+300       -1e+300
        2.388      0.700791       0.63174      0.418122      0.579393      0.370639   -0.00173416    0.00160496     0.0335894      0.103535    -0.0488422     -0.426655     -0.915231      -1.29084      -1.43594      -1.35543      -1.33863      -1.47958      -2.00563      -2.51255      -2.46197      -2.64787      -2.42993      -2.66318      -2.84873      -3.01158      -2.83182      -2.56465      -2.41243      -2.41793      -2.41793      -2.35375      -2.37298        -2.353      -2.35658      -2.30928      -2.14468      -2.11047      -2.11283       -1e+300       -1e+300       -1e+300       -1e+300       -1e+300       -1e+300       -1e+300       -1e+300       -1e+300       -1e+300       -1e+300       -1e+300       -1e+300       -1e+300       -1e+300       -1e+300       -1e+300
         2.39       5.86435       5.73979       5.39402        5.7177       5.50366       5.19825       5.31679       5.35313        5.3482       5.08185       4.80202       4.37826       4.11154        4.1086       4.16297       4.23678       4.09087       3.35677       2.86847        2.8926       2.68212       2.95702       2.82882       2.60995       2.38184       2.65107       2.97231       3.17275        3.1201        3.1201        3.2198       3.21827       3.21767       3.25455       3.39318       3.56119       3.60304       3.61607       -1e+300       -1e+300       -1e+300       -1e+300       -1e+300       -1e+300       -1e+300       -1e+300       -1e+300       -1e+300       -1e+300       -1e+300       -1e+300       -1e+300       -1e+300       -1e+300       -1e+300
        2.392       2.30463       2.03668       1.56951       1.92863       1.73909       1.66565       1.79205       1.83752       1.78297       1.87693       1.48707       1.00206      0.887601      0.793409      0.822873      0.945056      0.696409      0.089384     -0.293599     -0.665352     -0.799367      -0.49554     -0.375284     -0.686644     -0.985521     -0.607942     -0.287964     -0.160132     -0.269915     -0.269915     -0.103075     -0.106264     -0.138092    -0.0974583     0.0739922      0.237663       0.27886      0.294168       -1e+300       -1e+300       -1e+300       -1e+300       -1e+300       -1e+300       -1e+300       -1e+300       -1e+300       -1e+300       -1e+300       -1e+300       -1e+300       -1e+300       -1e+300       -1e+300       -1e+300
        2.394      -1.95124      -2.31947       -2.7751      -2.62259       -2.4661      -2.28588      -2.36016      -2.36238      -2.48526      -2.38912      -2.65993       -3.1434      -3.13733       -3.4759      -3.48178      -3.52067       -3.6817       -3.8638      -4.41319      -5.00958      -5.04745      -4.95068      -4.54848      -4.84722      -5.15651      -4.81049      -4.49922      -4.49978      -4.68299      -4.68299      -4.52679      -4.57157      -4.67972      -4.68575      -4.49454      -4.35719      -4.32992      -4.33366       -1e+300       -1e+300       -1e+300       -1e+300       -1e+300       -1e+300       -1e+300       -1e+300       -1e+300       -1e+300       -1e+300       -1e+300       -1e+300       -1e+300       -1e+300       -1e+300       -1e+300
        2.396       2.89049       2.61605       2.43726       2.25474       2.60438       2.90453       2.77397       2.59344       2.37642       1.76817       1.97878       1.79629       1.88706       1.67769        1.5342       1.31166       1.21112       1.09902      0.576674      0.066278    -0.0810369     -0.382835      0.272951       0.17888    -0.0765299      0.227635      0.514524      0.442515      0.199459      0.199459      0.367293      0.335737      0.192762      0.168614      0.412776      0.560693      0.594846      0.533306       -1e+300       -1e+300       -1e+300       -1e+300       -1e+300       -1e+300       -1e+300       -1e+300       -1e+300       -1e+300       -1e+300       -1e+300       -1e+300       -1e+300       -1e+300       -1e+300       -1e+300
        2.398     -0.568305     -0.672931     -0.591375     -0.649784     -0.406781      -0.61955      -0.78562     -0.937256      -1.12931      -1.81992      -1.59223      -1.43936      -1.39434       -1.7683      -2.05111      -2.18836      -2.32491      -2.55247      -2.83591      -3.04931      -3.44251      -4.12574      -3.41049       -3.2727      -3.42742      -3.13321      -2.93915      -3.05368      -3.29356      -3.29356      -3.05368       -3.0703      -3.22756      -3.26225      -2.96446      -2.81361       -2.7798      -2.81758       -1e+300       -1e+300       -1e+300       -1e+300       -1e+300       -1e+300       -1e+300       -1e+300       -1e+300       -1e+300       -1e+300       -1e+300       -1e+300       -1e+300       -1e+300       -1e+300       -1e+300
          2.4     -0.142471     -0.172293    -0.0722741      0.196752     0.0550765     -0.504775     -0.609118     -0.676754     -0.830356      -1.07686      -1.13152      -0.98427     -0.768502      -1.58296      -1.77818      -1.95537      -2.17688      -2.47056      -2.55536        -2.493      -3.08445      -4.02684      -3.26436      -3.04011       -3.1174      -2.87147      -2.76436      -2.90289      -3.14773      -3.14773      -2.89523      -2.91903      -3.09368      -3.15832      -2.85458      -2.71394       -2.6874      -2.74487       -1e+300       -1e+300       -1e+300       -1e+300       -1e+300       -1e+300       -1e+300       -1e+300       -1e+300       -1e+300       -1e+300       -1e+300       -1e+300       -1e+300       -1e+300       -1e+300       -1e+300
        2.402       5.48883       5.43055       5.39884       5.60867       5.26997       4.86175       4.77089       4.66889       4.57651       4.33027       4.00575       4.04339       4.48106       3.74915        3.6818       3.44639       3.23374       3.07752       2.93059       2.94519       2.33513       1.42863       2.15236       2.41321        2.3984       2.60614       2.64645       2.52146       2.25937       2.25937       2.52233       2.51771       2.35388       2.25966       2.58225       2.72485       2.75315       2.63576       -1e+300       -1e+300       -1e+300       -1e+300       -1e+300       -1e+300       -1e+300       -1e+300       -1e+300       -1e+300       -1e+300       -1e+300       -1e+300       -1e+300       -1e+300       -1e+300       -1e+300
        2.404       1.99261       1.81707       1.51858       1.67725       1.46575       1.17483       1.06128      0.938167      0.872887       0.58903     0.0927691      0.128477       0.44922     -0.161361     -0.138841     -0.282416     -0.398402        -0.417     -0.641482     -0.851335      -1.28161      -2.10147      -1.59303      -1.18884      -1.19117      -1.02339      -1.00943      -1.05998      -1.23303      -1.23303     -0.998457     -0.992778      -1.09777      -1.20302      -0.87367     -0.740382     -0.723261     -0.804156       -1e+300       -1e+300       -1e+300       -1e+300       -1e+300       -1e+300       -1e+300       -1e+300       -1e+300       -1e+300       -1e+300       -1e+300       -1e+300       -1e+300       -1e+300       -1e+300       -1e+300
        2.406    -0.0397877     -0.266538      -0.74359      -0.53401     -0.613902     -0.754841     -0.985822      -1.07946      -1.11887      -1.44375      -1.91348      -1.86925      -1.71491      -2.11209      -2.23328      -2.35226      -2.40686      -2.45128       -2.5899      -2.83003      -3.14875      -4.22908      -3.84399      -3.16532      -3.16021      -3.06965      -3.04056      -3.01218      -3.10279      -3.10279      -2.89897      -2.88893      -2.92721      -3.04001      -2.72761      -2.60678      -2.58987      -2.68568       -1e+300       -1e+300       -1e+300       -1e+300       -1e+300       -1e+300       -1e+300       -1e+300       -1e+300       -1e+300       -1e+300       -1e+300       -1e+300       -1e+300       -1e+300       -1e+300       -1e+300
        2.408      -2.97073      -3.19538      -3.54143      -3.38875      -3.44118      -3.49235      -3.66889      -3.74494      -3.77975      -4.25341      -4.49323       -4.5187      -4.55231      -4.85833      -5.01622      -5.12678      -5.24258      -5.42046      -5.51266      -5.77017      -5.90048      -7.53119      -7.22033       -6.0357      -6.04394      -5.97142      -5.89599      -5.81234        -5.816        -5.816      -5.64596      -5.63297      -5.61392       -5.7311      -5.45499      -5.35529      -5.35263       -5.4603       -1e+300       -1e+300       -1e+300       -1e+300       -1e+300       -1e+300       -1e+300       -1e+300       -1e+300       -1e+300       -1e+300       -1e+300       -1e+300       -1e+300       -1e+300       -1e+300       -1e+300
         2.41      -5.96124      -6.17201      -6.32882      -6.29728      -6.33159      -6.45783      -6.53144      -6.62962      -6.70353      -7.38202      -7.09028      -7.29092      -7.46182      -7.75845      -8.13458      -8.28835      -8.34934      -8.48927      -8.68767      -9.08356      -8.98871      -11.0413      -10.7061      -9.09825      -9.05417      -9.02742      -8.89672      -8.78394      -8.67821      -8.67821      -8.62378        -8.621      -8.57636      -8.71647      -8.47515      -8.39643      -8.39845      -8.49119       -1e+300       -1e+300       -1e+300       -1e+300       -1e+300       -1e+300       -1e+300       -1e+300       -1e+300       -1e+300       -1e+300       -1e+300       -1e+300       -1e+300       -1e+300       -1e+300       -1e+300
        2.412      -2.89715      -3.07443      -3.11189      -3.17484      -3.26706      -3.45174      -3.53531       -3.5894      -3.63229      -4.14263      -3.84932      -4.06439      -4.32507      -4.74908      -5.26668        -5.494      -5.53811      -5.54084      -5.80843      -6.06988      -5.90227       -8.1511      -7.97099      -6.07915      -6.11917      -6.00125      -5.83122      -5.69689      -5.51869      -5.51869      -5.54377      -5.56138      -5.49578      -5.68089      -5.47791      -5.43195      -5.45344      -5.54513       -1e+300       -1e+300       -1e+300       -1e+300       -1e+300       -1e+300       -1e+300       -1e+300       -1e+300       -1e+300       -1e+300       -1e+300       -1e+300       -1e+300       -1e+300       -1e+300       -1e+300
        2.414       1.78748       1.66859       1.59212        1.6343       1.53009        1.2956       1.25666        1.2492       1.21641       0.97969      0.869634      0.740291      0.539272     0.0924484     -0.340416     -0.587648     -0.695115     -0.820155     -0.829027     -0.805066     -0.828732      -3.09993      -3.14581      -1.27405      -1.29611      -1.17325      -1.01041     -0.830992     -0.613619     -0.613619      -0.64622     -0.671061     -0.601604     -0.778861     -0.611005     -0.584813     -0.607369     -0.643556       -1e+300       -1e+300       -1e+300       -1e+300       -1e+300       -1e+300       -1e+300       -1e+300       -1e+300       -1e+300       -1e+300       -1e+300       -1e+300       -1e+300       -1e+300       -1e+300       -1e+300
        2.416      -3.29055      -3.41928      -3.46481      -3.24999      -3.37596      -3.65089      -3.71842      -3.71618      -3.79768      -3.99143      -4.25061      -4.30016      -4.34319       -4.6621      -4.95458      -5.14802      -5.25259      -5.58089      -5.45343      -5.49133      -5.68046      -7.72229      -8.01093      -6.22372      -6.22831      -6.14134      -6.00554      -5.77873      -5.53009      -5.53009      -5.53499      -5.55323      -5.46001      -5.65547      -5.49058      -5.48359      -5.50316      -5.48337       -1e+300       -1e+300       -1e+300       -1e+300       -1e+300       -1e+300       -1e+300       -1e+300       -1e+300       -1e+300       -1e+300       -1e+300       -1e+300       -1e+300       -1e+300       -1e+300       -1e+300
        2.418      -13.5508      -13.6497      -13.6236       -13.464      -13.5446       -13.871      -14.0612      -14.1006       -14.181      -14.3443       -14.561      -14.6132      -14.5837      -14.7329      -14.9179      -15.0699      -15.2325      -15.6066      -15.8147      -15.9101      -16.2125      -17.6315      -18.0365      -16.5758      -16.5921      -16.5897      -16.4852       -16.255      -16.0742      -16.0742      -16.0392      -16.0862      -16.0132      -16.2312      -16.1226      -16.1513      -16.1724      -16.1171       -1e+300       -1e+300       -1e+300       -1e+300       -1e+300       -1e+300       -1e+300       -1e+300       -1e+300       -1e+300       -1e+300       -1e+300       -1e+300       -1e+300       -1e+300       -1e+300       -1e+300
         2.42      -12.7999       -12.745       -12.691      -12.8429      -12.9621      -13.2875      -13.5236      -13.5703      -13.6485      -13.8665      -13.9442      -14.0028      -14.0745      -14.2103      -14.2987      -14.4157      -14.5719      -14.9923      -15.4099      -15.6481      -15.7495      -16.6654      -16.9697       -15.935      -15.9566      -15.9951      -15.8695       -15.648      -15.6119      -15.6119       -15.474      -15.5166      -15.4758      -15.6741      -15.5973      -15.6473      -15.6546      -15.5423       -1e+300       -1e+300       -1e+300       -1e+300       -1e+300       -1e+300       -1e+300       -1e+300       -1e+300       -1e+300       -1e+300       -1e+300       -1e+300       -1e+300       -1e+300       -1e+300       -1e+300
        2.422      -3.64439       -3.3985      -3.57173      -3.82991      -4.02756      -4.14299      -4.29698      -4.47023      -4.82386      -4.96941      -5.02659       -5.0999      -5.22304      -5.37187      -5.48265      -5.51466      -5.62494      -5.91132      -6.27943      -6.88144      -6.88349      -7.49714      -7.57371      -6.88125      -6.90933      -6.91189      -6.73172      -6.51401      -6.58537      -6.58537      -6.36892      -6.36246      -6.28928      -6.46076      -6.34943       -6.4103      -6.39628      -6.23985       -1e+300       -1e+300       -1e+300       -1e+300       -1e+300       -1e+300       -1e+300       -1e+300       -1e+300       -1e+300       -1e+300       -1e+300       -1e+300       -1e+300       -1e+300       -1e+300       -1e+300
        2.424      -3.84223      -3.82994      -4.12265      -4.27047      -4.41329      -4.70891      -4.93414      -5.13191       -5.2762      -5.35472      -5.45012       -5.7503      -5.84867      -5.78261      -5.90896       -5.9734      -6.09375      -6.29949      -6.72468      -7.31084      -7.57024      -7.94046      -7.71447      -7.37677      -7.42268      -7.39243      -7.20042      -7.05482      -7.16734      -7.16734      -6.95844      -6.92764      -6.87235      -7.01198      -6.95722      -7.03608      -7.02606      -6.79421       -1e+300       -1e+300       -1e+300       -1e+300       -1e+300       -1e+300       -1e+300       -1e+300       -1e+300       -1e+300       -1e+300       -1e+300       -1e+300       -1e+300       -1e+300       -1e+300       -1e+300
        2.426      -6.51895      -6.70122       -6.5991      -6.84401      -6.98206      -7.47368      -7.63042      -7.65763      -7.74274      -7.83408        -7.946      -8.37868      -8.54661      -8.46023       -8.5243      -8.60583      -8.72686      -8.99939      -9.61961      -9.89214      -10.4429      -10.5654      -10.1664      -10.0286      -10.0979      -10.0457      -9.89183      -9.82843      -9.90449      -9.90449      -9.75402      -9.71528      -9.67339          -9.8      -9.73772      -9.93967      -9.87052      -9.65908       -1e+300       -1e+300       -1e+300       -1e+300       -1e+300       -1e+300       -1e+300       -1e+300       -1e+300       -1e+300       -1e+300       -1e+300       -1e+300       -1e+300       -1e+300       -1e+300       -1e+300
        2.428      -7.99909        -7.886      -7.67664      -8.01928      -8.23122      -8.61061      -8.69293      -8.72845       -8.8243      -8.89767      -9.08426      -9.38511      -9.74589      -9.69954      -9.78409      -9.87474      -10.0053      -10.3347      -10.8238       -11.072       -11.724      -11.7036      -11.2932      -11.2318      -11.3204       -11.283      -11.2093      -11.2242      -11.2236      -11.2236      -11.1337      -11.0969      -11.0725      -11.1968      -11.2432      -11.3199      -11.3237      -11.0922       -1e+300       -1e+300       -1e+300       -1e+300       -1e+300       -1e+300       -1e+300       -1e+300       -1e+300       -1e+300       -1e+300       -1e+300       -1e+300       -1e+300       -1e+300       -1e+300       -1e+300
         2.43      -6.85586      -6.35475      -6.41857      -6.64936      -6.86183      -7.06984      -7.12471      -7.16494      -7.30515      -7.41834      -7.64295      -7.90418      -8.26582      -8.30305      -8.37463      -8.46258      -8.58597      -8.85887      -9.28092       -9.5761      -10.0289      -10.0818      -9.75145      -9.67466      -9.76083      -9.75187      -9.76249      -9.82014      -9.70776      -9.70776      -9.66892      -9.61106      -9.60639      -9.70468       -9.7408      -9.81386      -9.83304      -9.59124       -1e+300       -1e+300       -1e+300       -1e+300       -1e+300       -1e+300       -1e+300       -1e+300       -1e+300       -1e+300       -1e+300       -1e+300       -1e+300       -1e+300       -1e+300       -1e+300       -1e+300