# Probe 0 (-0.35 0 0.005)
# Probe 1 (-0.35 0 0.0155)
# Probe 2 (-0.35 0 0.02653)
# Probe 3 (-0.35 0 0.0381)
# Probe 4 (-0.35 0 0.05026)
# Probe 5 (-0.35 0 0.06302)
# Probe 6 (-0.35 0 0.07642)
# Probe 7 (-0.35 0 0.08)
# Probe 8 (-0.35 0 0.09049)
# Probe 9 (-0.35 0 0.10527)
# Probe 10 (-0.35 0 0.12078)
# Probe 11 (-0.35 0 0.13707)
# Probe 12 (-0.35 0 0.15417)
# Probe 13 (-0.35 0 0.17213)
# Probe 14 (-0.35 0 0.19099)
# Probe 15 (-0.35 0 0.2)
# Probe 16 (-0.35 0 0.21079)
# Probe 17 (-0.35 0 0.23157)
# Probe 18 (-0.35 0 0.2534)
# Probe 19 (-0.35 0 0.27632)
# Probe 20 (-0.35 0 0.30039)
# Probe 21 (-0.35 0 0.32566)
# Probe 22 (-0.35 0 0.35219)
# Probe 23 (-0.35 0 0.38005)
# Probe 24 (-0.35 0 0.4093)
# Probe 25 (-0.35 0 0.44002)
# Probe 26 (-0.35 0 0.47227)
# Probe 27 (-0.35 0 0.50613)
# Probe 28 (-0.35 0 0.54169)
# Probe 29 (-0.35 0 0.57903)
# Probe 30 (-0.35 0 0.61823)
# Probe 31 (-0.35 0 0.65939)
# Probe 32 (-0.35 0 0.70261)
# Probe 33 (-0.35 0 0.74799)
# Probe 34 (-0.35 0 0.79564)
# Probe 35 (-0.35 0 0.84567)
# Probe 36 (-0.35 0 0.8982)
# Probe 37 (-0.35 0 0.95336)
# Probe 38 (-0.35 0 1.01128)
# Probe 39 (-0.35 0 1.0721)
# Probe 40 (-0.35 0 1.13595)
# Probe 41 (-0.35 0 1.203)
# Probe 42 (-0.35 0 1.2734)
# Probe 43 (-0.35 0 1.34732)
# Probe 44 (-0.35 0 1.42493)
# Probe 45 (-0.35 0 1.50643)
# Probe 46 (-0.35 0 1.592)
# Probe 47 (-0.35 0 1.68185)
# Probe 48 (-0.35 0 1.77619)
# Probe 49 (-0.35 0 1.87525)
# Probe 50 (-0.35 0 1.97927)
# Probe 51 (-0.35 0 2.08848)
# Probe 52 (-0.35 0 2.20315)
# Probe 53 (-0.35 0 2.32356)
# Probe 54 (-0.35 0 2.44999)
#       Probe             0             1             2             3             4             5             6             7             8             9            10            11            12            13            14            15            16            17            18            19            20            21            22            23            24            25            26            27            28            29            30            31            32            33            34            35            36            37            38            39            40            41            42            43            44            45            46            47            48            49            50            51            52            53            54
#        Time
        2.362             (3.88488 -0.304212 0.122333)             (4.22579 -1.60215 0.528562)             (4.28245 -1.09258 0.710527)             (4.30256 -0.256629 0.287482)             (5.28612 -1.08893 0.512929)             (4.65071 -0.429469 -0.47437)             (4.7863 0.16848 0.00726738)             (4.71671 -0.0319584 0.210618)             (4.76857 -0.4602 0.500883)             (4.98612 -0.692747 0.618259)             (7.24717 -0.52873 0.129857)             (7.58056 -0.919308 -0.022022)             (7.4286 -0.688144 -0.149206)             (7.36432 -0.416605 -0.306718)             (7.20063 -0.60095 -0.2503)             (7.45853 -0.431844 -0.233893)             (7.59088 -0.187786 -0.139857)             (7.49499 -0.234826 0.0440927)             (7.9177 0.00912801 -0.11872)             (8.66909 0.680501 -0.697835)             (9.52331 0.780747 -0.552938)             (9.27761 0.744715 0.0107945)             (8.99187 0.644045 0.055613)             (9.06747 0.768182 0.203411)             (8.86821 0.818 0.190765)             (8.89777 0.713428 0.144183)             (9.33005 0.663877 0.188867)             (9.27822 0.715955 0.243218)             (8.96267 0.43152 0.558)             (8.96267 0.43152 0.558)             (9.58962 0.35375 0.0426851)             (9.22091 0.282515 -0.0277172)             (9.40496 -0.0915 -0.0429346)             (9.33467 -0.388613 -0.248123)             (9.45271 -0.015304 0.190454)             (9.36506 -0.0189851 0.181909)             (9.05422 0.262595 -0.00413449)             (8.18435 0.411346 -0.185263)             (-1e+300 -1e+300 -1e+300)             (-1e+300 -1e+300 -1e+300)             (-1e+300 -1e+300 -1e+300)             (-1e+300 -1e+300 -1e+300)             (-1e+300 -1e+300 -1e+300)             (-1e+300 -1e+300 -1e+300)             (-1e+300 -1e+300 -1e+300)             (-1e+300 -1e+300 -1e+300)             (-1e+300 -1e+300 -1e+300)             (-1e+300 -1e+300 -1e+300)             (-1e+300 -1e+300 -1e+300)             (-1e+300 -1e+300 -1e+300)             (-1e+300 -1e+300 -1e+300)             (-1e+300 -1e+300 -1e+300)             (-1e+300 -1e+300 -1e+300)             (-1e+300 -1e+300 -1e+300)             (-1e+300 -1e+300 -1e+300)
        2.364             (3.68203 -0.425698 0.12999)             (4.18133 -1.44428 0.669571)             (4.26567 -0.936558 0.844176)             (4.32877 -0.933945 0.731416)             (4.77368 -0.923279 -0.332727)             (5.12259 0.0689831 -0.67965)             (5.19441 -0.258528 0.0666803)             (5.07604 -0.486427 0.293998)             (4.97518 -0.832067 0.570597)             (4.90217 -0.343312 0.278659)             (6.69213 -0.464131 0.0984284)             (7.41833 -1.01947 -0.334192)             (7.39342 -0.73167 -0.419878)             (7.16314 -0.415003 -0.216131)             (7.18244 -0.475727 -0.226645)             (7.35308 -0.250285 -0.190117)             (7.46585 -0.080484 -0.0873675)             (7.40917 -0.187336 0.0789416)             (7.90074 0.463217 -0.305989)             (8.80709 1.07935 -0.786686)             (9.64343 0.789749 -0.348777)             (9.48745 0.724472 -0.0718832)             (8.96231 0.741664 -0.016364)             (9.11255 0.895643 0.128698)             (8.85771 0.890564 0.120984)             (9.01261 0.68404 0.101206)             (9.45012 0.627129 0.0478885)             (9.25821 0.708897 0.137027)             (8.99992 0.462176 0.46561)             (8.99992 0.462176 0.46561)             (9.59191 0.352706 0.0267555)             (9.20324 0.248795 -0.0211632)             (9.34384 -0.0154459 -0.0196921)             (9.29654 -0.380764 -0.229416)             (9.40259 -0.0496261 0.201159)             (9.38289 -0.0119262 0.153998)             (9.07491 0.215638 0.00748274)             (8.19726 0.444499 -0.175999)             (-1e+300 -1e+300 -1e+300)             (-1e+300 -1e+300 -1e+300)             (-1e+300 -1e+300 -1e+300)             (-1e+300 -1e+300 -1e+300)             (-1e+300 -1e+300 -1e+300)             (-1e+300 -1e+300 -1e+300)             (-1e+300 -1e+300 -1e+300)             (-1e+300 -1e+300 -1e+300)             (-1e+300 -1e+300 -1e+300)             (-1e+300 -1e+300 -1e+300)             (-1e+300 -1e+300 -1e+300)             (-1e+300 -1e+300 -1e+300)             (-1e+300 -1e+300 -1e+300)             (-1e+300 -1e+300 -1e+300)             (-1e+300 -1e+300 -1e+300)             (-1e+300 -1e+300 -1e+300)             (-1e+300 -1e+300 -1e+300)
        2.366             (3.43669 -0.658741 -0.00442254)             (4.21925 -1.06913 0.663888)             (4.29472 -0.583025 0.622932)             (4.3738 -0.7398 0.416576)             (4.84418 -0.365627 -0.389697)             (5.50561 0.0260701 -0.320138)             (5.50844 -0.535059 0.0188072)             (5.48174 -0.604823 0.0719587)             (5.36252 -0.749145 0.316085)             (4.92398 0.132861 -0.122391)             (6.43171 -0.452109 0.187897)             (7.29714 -0.728946 -0.521093)             (7.3049 -0.883646 -0.38901)             (6.95334 -0.374017 -0.0626617)             (7.15652 -0.302472 -0.226659)             (7.21032 -0.133767 -0.191507)             (7.31117 -0.0235858 -0.1049)             (7.42559 0.129095 0.0743135)             (7.9248 0.978181 -0.319798)             (8.83292 1.28967 -0.497333)             (9.31053 0.982487 -0.121387)             (9.43688 0.618781 -0.145893)             (9.15491 0.702184 -0.201292)             (9.23883 0.931933 -0.0265259)             (8.95221 0.872591 -0.00191658)             (9.15549 0.680903 0.0120842)             (9.54606 0.66754 -0.113936)             (9.2762 0.683273 0.0354889)             (9.07746 0.502844 0.345691)             (9.07746 0.502844 0.345691)             (9.60454 0.357411 -0.00380177)             (9.19904 0.222211 -0.0118771)             (9.29755 0.0849374 0.0180617)             (9.25912 -0.347819 -0.171601)             (9.34879 -0.090688 0.24522)             (9.40587 -0.00256876 0.155675)             (9.09622 0.170031 0.0271973)             (8.21789 0.462722 -0.166129)             (-1e+300 -1e+300 -1e+300)             (-1e+300 -1e+300 -1e+300)             (-1e+300 -1e+300 -1e+300)             (-1e+300 -1e+300 -1e+300)             (-1e+300 -1e+300 -1e+300)             (-1e+300 -1e+300 -1e+300)             (-1e+300 -1e+300 -1e+300)             (-1e+300 -1e+300 -1e+300)             (-1e+300 -1e+300 -1e+300)             (-1e+300 -1e+300 -1e+300)             (-1e+300 -1e+300 -1e+300)             (-1e+300 -1e+300 -1e+300)             (-1e+300 -1e+300 -1e+300)             (-1e+300 -1e+300 -1e+300)             (-1e+300 -1e+300 -1e+300)             (-1e+300 -1e+300 -1e+300)             (-1e+300 -1e+300 -1e+300)
        2.368             (3.29543 -0.854666 -0.126521)             (4.33499 -0.710663 0.435098)             (4.32036 -0.349511 0.0591509)             (4.44673 -0.347759 0.095334)             (5.10161 -0.151497 -0.100716)             (5.53227 -0.431138 -0.104247)             (5.71167 -0.426866 -0.225593)             (5.65268 -0.359052 -0.261051)             (5.78686 -0.0937917 -0.337802)             (5.46934 0.266015 0.200822)             (6.63689 -0.663199 0.223984)             (7.4135 -0.700695 0.129899)             (7.53294 -1.23381 0.207702)             (6.88633 -0.401008 -0.0164025)             (7.1591 -0.113811 -0.239067)             (7.13436 -0.0708169 -0.167458)             (7.17259 0.12461 -0.0835823)             (7.47254 0.429813 0.0869959)             (8.07518 1.34959 -0.283058)             (8.83446 1.17425 -0.33864)             (8.89789 1.15555 -0.0522699)             (9.17372 0.594362 -0.0763312)             (9.32057 0.771665 -0.310204)             (9.40778 0.855694 -0.198712)             (9.13127 0.782131 -0.133251)             (9.26746 0.734077 -0.10673)             (9.59389 0.783878 -0.24087)             (9.34631 0.662534 -0.0625513)             (9.18754 0.541785 0.213513)             (9.18754 0.541785 0.213513)             (9.62798 0.368687 -0.047672)             (9.21271 0.205922 -0.00094168)             (9.27594 0.197338 0.0665812)             (9.22958 -0.289323 -0.0823533)             (9.29873 -0.137833 0.318)             (9.42983 0.00894501 0.183521)             (9.11576 0.131765 0.0480975)             (8.24767 0.462752 -0.157949)             (-1e+300 -1e+300 -1e+300)             (-1e+300 -1e+300 -1e+300)             (-1e+300 -1e+300 -1e+300)             (-1e+300 -1e+300 -1e+300)             (-1e+300 -1e+300 -1e+300)             (-1e+300 -1e+300 -1e+300)             (-1e+300 -1e+300 -1e+300)             (-1e+300 -1e+300 -1e+300)             (-1e+300 -1e+300 -1e+300)             (-1e+300 -1e+300 -1e+300)             (-1e+300 -1e+300 -1e+300)             (-1e+300 -1e+300 -1e+300)             (-1e+300 -1e+300 -1e+300)             (-1e+300 -1e+300 -1e+300)             (-1e+300 -1e+300 -1e+300)             (-1e+300 -1e+300 -1e+300)             (-1e+300 -1e+300 -1e+300)
         2.37             (3.45295 -0.962382 -0.0858439)             (4.35212 -0.537365 -0.0725191)             (4.37604 -0.34627 -0.477925)             (4.4968 -0.445026 -0.0464795)             (5.01275 -0.316422 -0.195568)             (5.32356 -0.542813 -0.542189)             (5.64168 -0.341564 -0.646077)             (5.45034 -0.158832 -0.76745)             (6.95955 -0.661525 -0.335643)             (6.02958 -0.836195 0.0988603)             (7.48791 -1.20799 0.349253)             (7.37159 -1.34455 0.369759)             (7.39908 -1.56544 0.427573)             (6.75061 -0.239944 -0.0944264)             (7.15115 0.0732565 -0.28441)             (7.13438 0.0832642 -0.114965)             (7.14944 0.266314 -0.123578)             (7.46138 0.724313 0.000770978)             (8.27888 1.35524 -0.39423)             (8.69102 0.785524 -0.53025)             (8.70363 1.09539 -0.175506)             (8.90146 0.772025 0.0353852)             (9.20969 0.92917 -0.244128)             (9.55009 0.687648 -0.307223)             (9.32836 0.654007 -0.212367)             (9.29244 0.843175 -0.205007)             (9.58185 0.930762 -0.280862)             (9.44263 0.678082 -0.154106)             (9.3035 0.573874 0.0852815)             (9.3035 0.573874 0.0852815)             (9.64509 0.388533 -0.0964367)             (9.23019 0.202544 0.0106872)             (9.26794 0.307294 0.120764)             (9.19846 -0.207538 0.0277301)             (9.2422 -0.188854 0.412782)             (9.43414 0.0201729 0.231668)             (9.11546 0.105153 0.0638637)             (8.271 0.443738 -0.153214)             (-1e+300 -1e+300 -1e+300)             (-1e+300 -1e+300 -1e+300)             (-1e+300 -1e+300 -1e+300)             (-1e+300 -1e+300 -1e+300)             (-1e+300 -1e+300 -1e+300)             (-1e+300 -1e+300 -1e+300)             (-1e+300 -1e+300 -1e+300)             (-1e+300 -1e+300 -1e+300)             (-1e+300 -1e+300 -1e+300)             (-1e+300 -1e+300 -1e+300)             (-1e+300 -1e+300 -1e+300)             (-1e+300 -1e+300 -1e+300)             (-1e+300 -1e+300 -1e+300)             (-1e+300 -1e+300 -1e+300)             (-1e+300 -1e+300 -1e+300)             (-1e+300 -1e+300 -1e+300)             (-1e+300 -1e+300 -1e+300)
        2.372             (3.84087 -1.05697 0.068497)             (4.23247 -0.397179 -0.566158)             (4.36101 -0.54242 -0.812517)             (4.70914 -0.540698 -0.419159)             (5.00202 -0.388748 -0.342852)             (5.32339 -0.519882 -0.115546)             (5.56616 -0.580971 -0.363022)             (5.75666 -0.663068 -0.305618)             (7.20426 -1.32847 -0.585148)             (7.0631 -1.51241 -0.529352)             (7.50277 -1.53813 -0.392882)             (7.32034 -1.70787 -0.358407)             (7.35573 -0.906113 -0.137623)             (6.73622 -0.0650212 -0.202709)             (7.3012 0.227818 -0.327203)             (7.18681 0.260166 -0.124076)             (7.20236 0.398404 -0.187861)             (7.37906 0.941422 -0.248243)             (8.39993 0.94714 -0.671953)             (8.40602 0.486515 -0.815209)             (8.70775 1.03297 -0.433527)             (8.74603 1.06869 0.10335)             (8.95434 0.954313 -0.073766)             (9.62559 0.484021 -0.312975)             (9.48498 0.504273 -0.207093)             (9.23655 0.957829 -0.229459)             (9.53346 1.03768 -0.227952)             (9.53986 0.750177 -0.226459)             (9.41955 0.596491 -0.0277993)             (9.41955 0.596491 -0.0277993)             (9.65684 0.415264 -0.141356)             (9.25551 0.210971 0.0214059)             (9.27895 0.397239 0.172718)             (9.1764 -0.111069 0.14327)             (9.19077 -0.247208 0.518854)             (9.42232 0.0224721 0.291303)             (9.10187 0.0881233 0.0691823)             (8.29547 0.402303 -0.152698)             (-1e+300 -1e+300 -1e+300)             (-1e+300 -1e+300 -1e+300)             (-1e+300 -1e+300 -1e+300)             (-1e+300 -1e+300 -1e+300)             (-1e+300 -1e+300 -1e+300)             (-1e+300 -1e+300 -1e+300)             (-1e+300 -1e+300 -1e+300)             (-1e+300 -1e+300 -1e+300)             (-1e+300 -1e+300 -1e+300)             (-1e+300 -1e+300 -1e+300)             (-1e+300 -1e+300 -1e+300)             (-1e+300 -1e+300 -1e+300)             (-1e+300 -1e+300 -1e+300)             (-1e+300 -1e+300 -1e+300)             (-1e+300 -1e+300 -1e+300)             (-1e+300 -1e+300 -1e+300)             (-1e+300 -1e+300 -1e+300)
        2.374             (3.99078 -1.11676 0.213249)             (4.20909 -0.335795 -0.724772)             (4.48724 -0.596538 -0.780965)             (5.07612 -0.2127 -0.698077)             (5.40479 -0.196102 -0.449965)             (5.44021 -0.424052 0.496559)             (5.67759 -0.692953 0.277129)             (5.8482 -0.607625 0.095747)             (6.65283 -1.3231 -0.543516)             (6.91044 -1.09407 -0.74947)             (6.98839 -1.09903 -0.5466)             (7.33837 -0.989666 -0.00779535)             (7.43218 -0.531842 0.193102)             (6.82874 0.0423708 -0.00192388)             (7.48996 0.266909 -0.279471)             (7.29799 0.41398 -0.207093)             (7.20342 0.540359 -0.235492)             (7.39745 1.00992 -0.445474)             (8.30328 0.548149 -0.893378)             (8.30304 0.630709 -0.75433)             (8.77674 1.21522 -0.615397)             (8.6563 1.23242 0.129429)             (8.67847 0.869587 0.0644666)             (9.62156 0.299071 -0.237235)             (9.57088 0.31708 -0.137445)             (9.14525 1.00723 -0.163081)             (9.47184 1.05394 -0.119637)             (9.61383 0.873133 -0.250727)             (9.53426 0.61612 -0.112607)             (9.53426 0.61612 -0.112607)             (9.66556 0.449386 -0.169605)             (9.28925 0.233195 0.0311648)             (9.30791 0.456114 0.216133)             (9.17138 -0.00907553 0.250939)             (9.15339 -0.310991 0.626902)             (9.39827 0.0110589 0.353562)             (9.08116 0.0791627 0.0617518)             (8.32628 0.340799 -0.156011)             (-1e+300 -1e+300 -1e+300)             (-1e+300 -1e+300 -1e+300)             (-1e+300 -1e+300 -1e+300)             (-1e+300 -1e+300 -1e+300)             (-1e+300 -1e+300 -1e+300)             (-1e+300 -1e+300 -1e+300)             (-1e+300 -1e+300 -1e+300)             (-1e+300 -1e+300 -1e+300)             (-1e+300 -1e+300 -1e+300)             (-1e+300 -1e+300 -1e+300)             (-1e+300 -1e+300 -1e+300)             (-1e+300 -1e+300 -1e+300)             (-1e+300 -1e+300 -1e+300)             (-1e+300 -1e+300 -1e+300)             (-1e+300 -1e+300 -1e+300)             (-1e+300 -1e+300 -1e+300)             (-1e+300 -1e+300 -1e+300)
        2.376             (3.68205 -1.05647 0.242843)             (4.22912 -0.392889 -0.616778)             (4.84811 -0.432507 -0.308395)             (5.30105 -0.137237 -0.384235)             (6.23461 -0.0939672 -0.212679)             (5.68339 -0.150217 0.0374527)             (5.68191 -0.0621743 0.0629176)             (5.59848 -0.117835 0.0215383)             (6.24568 -1.47886 0.174583)             (6.34711 -0.524157 -0.334428)             (6.60468 -0.257248 0.143388)             (6.6901 -0.255059 0.586895)             (6.90431 -0.30656 0.897534)             (6.86624 -0.00640142 0.425813)             (7.34946 0.308281 -0.140407)             (7.4146 0.533298 -0.255719)             (7.14802 0.655191 -0.218497)             (7.84925 0.840865 -0.552001)             (8.25176 0.633943 -0.862443)             (8.46409 1.10747 -0.291519)             (8.8283 1.46317 -0.41296)             (8.49173 1.10849 0.0729378)             (8.39307 0.794459 0.104762)             (9.5261 0.159195 -0.125777)             (9.58361 0.0725235 -0.0628307)             (9.05538 0.946597 -0.0431146)             (9.39346 0.978704 -0.00324337)             (9.64273 1.00314 -0.193738)             (9.62904 0.642992 -0.155735)             (9.62904 0.642992 -0.155735)             (9.6535 0.49063 -0.167708)             (9.30873 0.271532 0.0434889)             (9.32798 0.47964 0.249241)             (9.16596 0.0873973 0.342866)             (9.11561 -0.375977 0.72965)             (9.34565 -0.0162299 0.411647)             (9.0382 0.0761367 0.0431291)             (8.34566 0.264135 -0.161686)             (-1e+300 -1e+300 -1e+300)             (-1e+300 -1e+300 -1e+300)             (-1e+300 -1e+300 -1e+300)             (-1e+300 -1e+300 -1e+300)             (-1e+300 -1e+300 -1e+300)             (-1e+300 -1e+300 -1e+300)             (-1e+300 -1e+300 -1e+300)             (-1e+300 -1e+300 -1e+300)             (-1e+300 -1e+300 -1e+300)             (-1e+300 -1e+300 -1e+300)             (-1e+300 -1e+300 -1e+300)             (-1e+300 -1e+300 -1e+300)             (-1e+300 -1e+300 -1e+300)             (-1e+300 -1e+300 -1e+300)             (-1e+300 -1e+300 -1e+300)             (-1e+300 -1e+300 -1e+300)             (-1e+300 -1e+300 -1e+300)
        2.378             (3.21227 -0.86964 0.170046)             (4.31176 -0.338451 -0.501242)             (5.04469 -0.389486 -0.0485969)             (5.46759 -0.405441 -0.00324143)             (6.27279 -0.141712 -0.0220781)             (5.89648 0.180033 -0.609524)             (5.86315 0.287746 -0.662225)             (5.60474 0.0802343 -0.425541)             (5.51959 -0.962919 0.404604)             (6.43728 -0.410997 0.238385)             (6.3978 -0.0429305 0.35057)             (5.96235 0.0970603 0.743916)             (6.11548 0.142221 1.13875)             (6.45479 -0.0199294 1.10426)             (6.78897 0.380639 0.0625454)             (7.38543 0.600762 -0.227261)             (7.0434 0.718452 -0.296598)             (7.94038 0.840556 -0.870004)             (8.39899 1.27802 -0.653619)             (8.61928 1.5142 0.00910604)             (8.86103 1.4798 -0.0696783)             (8.29534 0.819135 -0.0391758)             (8.16779 0.731102 0.0819432)             (9.36022 0.06727 -0.0147521)             (9.56243 -0.207032 -0.0418493)             (9.01163 0.785708 0.0539397)             (9.32063 0.849693 0.0828791)             (9.64716 1.07765 -0.0455664)             (9.70856 0.684716 -0.147519)             (9.70856 0.684716 -0.147519)             (9.62756 0.537159 -0.12911)             (9.31428 0.325942 0.0595838)             (9.33353 0.469394 0.268911)             (9.16314 0.166801 0.412753)             (9.08616 -0.43822 0.819102)             (9.27518 -0.0597794 0.458835)             (8.98393 0.0742839 0.015723)             (8.36034 0.176972 -0.168933)             (-1e+300 -1e+300 -1e+300)             (-1e+300 -1e+300 -1e+300)             (-1e+300 -1e+300 -1e+300)             (-1e+300 -1e+300 -1e+300)             (-1e+300 -1e+300 -1e+300)             (-1e+300 -1e+300 -1e+300)             (-1e+300 -1e+300 -1e+300)             (-1e+300 -1e+300 -1e+300)             (-1e+300 -1e+300 -1e+300)             (-1e+300 -1e+300 -1e+300)             (-1e+300 -1e+300 -1e+300)             (-1e+300 -1e+300 -1e+300)             (-1e+300 -1e+300 -1e+300)             (-1e+300 -1e+300 -1e+300)             (-1e+300 -1e+300 -1e+300)             (-1e+300 -1e+300 -1e+300)             (-1e+300 -1e+300 -1e+300)
         2.38             (2.89138 -0.669871 0.0825366)             (4.52116 -0.193141 -0.527819)             (4.96418 -0.421169 -0.182233)             (5.76637 -0.218051 -0.174453)             (5.98686 0.132727 -0.287668)             (5.92567 0.38635 -0.723587)             (5.62422 0.349834 -0.978795)             (5.44374 0.248399 -0.767452)             (5.06645 -0.553333 0.265848)             (5.9062 -0.229694 0.386793)             (6.36555 -0.157856 0.354403)             (6.2465 -0.116896 0.715155)             (5.8635 0.152713 1.3588)             (5.92713 0.290291 1.34165)             (6.11883 0.516313 0.294598)             (7.22591 0.784844 -0.200844)             (6.98375 0.756076 -0.359098)             (7.84202 1.32724 -0.33631)             (8.36783 1.99263 -0.4037)             (8.55624 1.69061 -0.211217)             (8.89354 1.34867 -0.0733482)             (8.19199 0.626846 -0.0847093)             (8.03601 0.661039 0.0816711)             (9.13864 0.0235113 0.0817249)             (9.52312 -0.451535 -0.0943878)             (9.03135 0.572974 0.064679)             (9.28261 0.712936 0.116818)             (9.64617 1.05809 0.164066)             (9.76697 0.74435 -0.0839106)             (9.76697 0.74435 -0.0839106)             (9.58771 0.587224 -0.0547352)             (9.30025 0.39534 0.0799389)             (9.31231 0.434969 0.274109)             (9.15715 0.219616 0.458318)             (9.06489 -0.491614 0.888894)             (9.1917 -0.1151 0.490094)             (8.92213 0.0701506 -0.0173778)             (8.36935 0.0864932 -0.177701)             (-1e+300 -1e+300 -1e+300)             (-1e+300 -1e+300 -1e+300)             (-1e+300 -1e+300 -1e+300)             (-1e+300 -1e+300 -1e+300)             (-1e+300 -1e+300 -1e+300)             (-1e+300 -1e+300 -1e+300)             (-1e+300 -1e+300 -1e+300)             (-1e+300 -1e+300 -1e+300)             (-1e+300 -1e+300 -1e+300)             (-1e+300 -1e+300 -1e+300)             (-1e+300 -1e+300 -1e+300)             (-1e+300 -1e+300 -1e+300)             (-1e+300 -1e+300 -1e+300)             (-1e+300 -1e+300 -1e+300)             (-1e+300 -1e+300 -1e+300)             (-1e+300 -1e+300 -1e+300)             (-1e+300 -1e+300 -1e+300)
        2.382             (2.77811 -0.587158 0.0483876)             (4.66695 -0.066634 -0.547899)             (4.8301 -0.371116 -0.281713)             (5.79018 0.077435 -0.240352)             (6.00363 0.238343 -0.34232)             (5.72096 0.41019 -0.517692)             (5.28692 0.377242 -0.611564)             (5.14382 0.202979 -0.527884)             (4.94127 -0.340419 0.219868)             (5.44454 -0.0395292 0.458485)             (6.18839 -0.085926 0.393866)             (6.45027 -0.262825 0.758855)             (6.14324 -0.110261 1.34446)             (5.82008 0.384616 1.22297)             (5.75404 0.679439 0.53848)             (7.01842 0.969936 0.108319)             (7.20119 0.983778 -0.165225)             (8.07925 1.58741 0.496921)             (7.96194 2.02006 -0.209989)             (8.44324 1.69383 -0.336965)             (8.85379 1.33699 -0.101854)             (8.2486 0.717755 -0.0268099)             (7.94939 0.611347 0.163441)             (8.87754 0.035966 0.168922)             (9.45352 -0.590951 -0.194497)             (9.11592 0.356008 -0.0165418)             (9.31514 0.592974 0.0980484)             (9.65677 0.953965 0.364347)             (9.79752 0.814169 0.0312253)             (9.79752 0.814169 0.0312253)             (9.53669 0.635631 0.0460928)             (9.2657 0.472173 0.102917)             (9.2576 0.384756 0.264764)             (9.14124 0.234754 0.479136)             (9.05224 -0.535306 0.933433)             (9.10276 -0.17985 0.502176)             (8.85856 0.056189 -0.0531799)             (8.37293 -0.00714222 -0.188518)             (-1e+300 -1e+300 -1e+300)             (-1e+300 -1e+300 -1e+300)             (-1e+300 -1e+300 -1e+300)             (-1e+300 -1e+300 -1e+300)             (-1e+300 -1e+300 -1e+300)             (-1e+300 -1e+300 -1e+300)             (-1e+300 -1e+300 -1e+300)             (-1e+300 -1e+300 -1e+300)             (-1e+300 -1e+300 -1e+300)             (-1e+300 -1e+300 -1e+300)             (-1e+300 -1e+300 -1e+300)             (-1e+300 -1e+300 -1e+300)             (-1e+300 -1e+300 -1e+300)             (-1e+300 -1e+300 -1e+300)             (-1e+300 -1e+300 -1e+300)             (-1e+300 -1e+300 -1e+300)             (-1e+300 -1e+300 -1e+300)
        2.384             (2.86367 -0.574397 0.0581346)             (4.58088 0.143453 -0.441909)             (4.72865 -0.355335 -0.40706)             (5.50306 -0.0746315 -0.12801)             (5.79593 0.0625354 -0.402447)             (5.84851 0.0629686 -0.348949)             (5.51294 0.0576218 -0.313339)             (5.33743 0.0701055 -0.265948)             (5.2874 -0.0690646 0.14112)             (5.4697 0.0101566 0.519806)             (6.08692 -0.00326274 0.594731)             (6.18791 -0.303507 1.03438)             (6.13846 -0.243104 1.0952)             (6.02048 0.268214 1.08298)             (5.81786 0.807478 0.738147)             (6.93804 1.00642 0.55463)             (7.26431 1.13171 0.180727)             (7.66092 2.13321 0.411834)             (7.65612 1.56364 -0.237453)             (8.60636 1.8307 -0.077967)             (8.75327 1.4944 0.214989)             (8.40656 1.04595 0.0535418)             (7.84664 0.612938 0.313495)             (8.60346 0.108459 0.258883)             (9.33283 -0.594659 -0.27239)             (9.2522 0.156782 -0.128539)             (9.43693 0.491153 0.0566449)             (9.69329 0.816252 0.488937)             (9.79856 0.880188 0.18868)             (9.79856 0.880188 0.18868)             (9.48154 0.676848 0.161183)             (9.21601 0.546058 0.128642)             (9.17156 0.327638 0.245265)             (9.1143 0.205393 0.479888)             (9.04854 -0.571095 0.951051)             (9.01625 -0.250973 0.495849)             (8.79892 0.0260492 -0.0879032)             (8.37184 -0.102904 -0.202097)             (-1e+300 -1e+300 -1e+300)             (-1e+300 -1e+300 -1e+300)             (-1e+300 -1e+300 -1e+300)             (-1e+300 -1e+300 -1e+300)             (-1e+300 -1e+300 -1e+300)             (-1e+300 -1e+300 -1e+300)             (-1e+300 -1e+300 -1e+300)             (-1e+300 -1e+300 -1e+300)             (-1e+300 -1e+300 -1e+300)             (-1e+300 -1e+300 -1e+300)             (-1e+300 -1e+300 -1e+300)             (-1e+300 -1e+300 -1e+300)             (-1e+300 -1e+300 -1e+300)             (-1e+300 -1e+300 -1e+300)             (-1e+300 -1e+300 -1e+300)             (-1e+300 -1e+300 -1e+300)             (-1e+300 -1e+300 -1e+300)