# Probe 0 (-0.35 0 0.005)
# Probe 1 (-0.35 0 0.0155)
# Probe 2 (-0.35 0 0.02653)
# Probe 3 (-0.35 0 0.0381)
# Probe 4 (-0.35 0 0.05026)
# Probe 5 (-0.35 0 0.06302)
# Probe 6 (-0.35 0 0.07642)
# Probe 7 (-0.35 0 0.08)
# Probe 8 (-0.35 0 0.09049)
# Probe 9 (-0.35 0 0.10527)
# Probe 10 (-0.35 0 0.12078)
# Probe 11 (-0.35 0 0.13707)
# Probe 12 (-0.35 0 0.15417)
# Probe 13 (-0.35 0 0.17213)
# Probe 14 (-0.35 0 0.19099)
# Probe 15 (-0.35 0 0.2)
# Probe 16 (-0.35 0 0.21079)
# Probe 17 (-0.35 0 0.23157)
# Probe 18 (-0.35 0 0.2534)
# Probe 19 (-0.35 0 0.27632)
# Probe 20 (-0.35 0 0.30039)
# Probe 21 (-0.35 0 0.32566)
# Probe 22 (-0.35 0 0.35219)
# Probe 23 (-0.35 0 0.38005)
# Probe 24 (-0.35 0 0.4093)
# Probe 25 (-0.35 0 0.44002)
# Probe 26 (-0.35 0 0.47227)
# Probe 27 (-0.35 0 0.50613)
# Probe 28 (-0.35 0 0.54169)
# Probe 29 (-0.35 0 0.57903)
# Probe 30 (-0.35 0 0.61823)
# Probe 31 (-0.35 0 0.65939)
# Probe 32 (-0.35 0 0.70261)
# Probe 33 (-0.35 0 0.74799)
# Probe 34 (-0.35 0 0.79564)
# Probe 35 (-0.35 0 0.84567)
# Probe 36 (-0.35 0 0.8982)
# Probe 37 (-0.35 0 0.95336)
# Probe 38 (-0.35 0 1.01128)
# Probe 39 (-0.35 0 1.0721)
# Probe 40 (-0.35 0 1.13595)
# Probe 41 (-0.35 0 1.203)
# Probe 42 (-0.35 0 1.2734)
# Probe 43 (-0.35 0 1.34732)
# Probe 44 (-0.35 0 1.42493)
# Probe 45 (-0.35 0 1.50643)
# Probe 46 (-0.35 0 1.592)
# Probe 47 (-0.35 0 1.68185)
# Probe 48 (-0.35 0 1.77619)
# Probe 49 (-0.35 0 1.87525)
# Probe 50 (-0.35 0 1.97927)
# Probe 51 (-0.35 0 2.08848)
# Probe 52 (-0.35 0 2.20315)
# Probe 53 (-0.35 0 2.32356)
# Probe 54 (-0.35 0 2.44999)
#       Probe             0             1             2             3             4             5             6             7             8             9            10            11            12            13            14            15            16            17            18            19            20            21            22            23            24            25            26            27            28            29            30            31            32            33            34            35            36            37            38            39            40            41            42            43            44            45            46            47            48            49            50            51            52            53            54
#        Time
        5.302      -3.17013      -3.19453      -3.47923      -3.39671      -3.34701      -3.28919      -3.42857      -3.44461      -3.40531      -3.27227      -3.28743      -3.35871      -3.78699      -3.96292       -4.0971      -4.17039      -4.15853      -4.29058      -4.63023      -5.18984      -5.86277      -6.09588      -6.07842      -6.10093      -6.11203      -6.16851      -6.15784      -6.36784      -6.75766      -6.75766      -7.03365      -6.79125      -6.84979      -6.97511      -7.31371      -7.40626      -7.39676      -7.54904       -1e+300       -1e+300       -1e+300       -1e+300       -1e+300       -1e+300       -1e+300       -1e+300       -1e+300       -1e+300       -1e+300       -1e+300       -1e+300       -1e+300       -1e+300       -1e+300       -1e+300
        5.304      -3.27695      -3.35825      -3.70667      -3.49742      -3.45352      -3.53822      -3.57952      -3.48898      -3.49587      -3.48062      -3.45019      -3.61615      -3.95631      -4.13112      -4.21688      -4.25644      -4.26989       -4.5899      -4.83454      -5.15672      -5.75805      -6.05673      -6.22924      -6.27936      -6.27413      -6.33342      -6.32393        -6.493      -6.87919      -6.87919      -6.99882      -6.66017       -6.7417      -6.88778       -7.2596      -7.36089      -7.27388      -7.47722       -1e+300       -1e+300       -1e+300       -1e+300       -1e+300       -1e+300       -1e+300       -1e+300       -1e+300       -1e+300       -1e+300       -1e+300       -1e+300       -1e+300       -1e+300       -1e+300       -1e+300
        5.306      -4.96819       -5.1716      -5.50546      -5.22672      -5.12211       -5.2775      -5.27766      -5.16219      -5.34396      -5.36453      -5.32354      -5.48534      -5.73199      -5.94243      -6.05058       -6.0616      -6.09942      -6.33528      -6.65225      -6.76783       -7.1797      -7.64138      -8.07093       -8.1163      -8.12845      -8.25593      -8.27226      -8.39916      -8.73213      -8.73213      -8.87449      -8.55442      -8.67607      -8.84067      -9.25191      -9.37132      -9.30164      -9.45532       -1e+300       -1e+300       -1e+300       -1e+300       -1e+300       -1e+300       -1e+300       -1e+300       -1e+300       -1e+300       -1e+300       -1e+300       -1e+300       -1e+300       -1e+300       -1e+300       -1e+300
        5.308      -1.74362      -2.10015      -2.30199      -2.11867       -2.0209       -2.1783      -2.25606      -2.20707      -2.36252      -2.47607      -2.53166      -2.43263      -2.57897      -2.80115      -2.90451      -2.89452      -2.89707      -3.15329      -3.40187      -3.44626      -3.72224      -4.28141      -4.73673      -4.86819      -4.93948      -5.14932       -5.1692      -5.29266      -5.58013      -5.58013      -5.64583      -5.34787      -5.49652      -5.64868      -6.03612      -6.15835      -6.08797      -6.23761       -1e+300       -1e+300       -1e+300       -1e+300       -1e+300       -1e+300       -1e+300       -1e+300       -1e+300       -1e+300       -1e+300       -1e+300       -1e+300       -1e+300       -1e+300       -1e+300       -1e+300
         5.31       1.26798      0.807415      0.711936      0.838527      0.936332      0.707254      0.481751      0.373586      0.265267      0.163905      0.372814      0.500478      0.357734     0.0806449    -0.0422909    -0.0690891    -0.0842847     -0.317466     -0.331604     -0.408121     -0.735696      -1.16376      -1.53092      -1.81377      -1.94197      -2.19081       -2.2147      -2.38094       -2.5988       -2.5988      -2.53852      -2.29157      -2.33176        -2.481      -2.78626      -2.90334      -2.81816      -2.95783       -1e+300       -1e+300       -1e+300       -1e+300       -1e+300       -1e+300       -1e+300       -1e+300       -1e+300       -1e+300       -1e+300       -1e+300       -1e+300       -1e+300       -1e+300       -1e+300       -1e+300
        5.312     -0.638258      -1.02716      -1.10802      -0.95025     -0.709391      -1.25251      -1.40771      -1.52817      -1.67359      -1.79516      -1.60753      -1.59866      -1.72542      -2.08149       -2.2883      -2.32585      -2.38536      -2.34358       -2.0242      -2.43494       -2.9326      -3.33453      -3.49023      -3.80783      -3.98909      -4.27745      -4.33893      -4.58335      -4.71151      -4.71151      -4.65792      -4.54248      -4.54148      -4.66711      -4.94282      -5.06291      -5.01505      -5.12801       -1e+300       -1e+300       -1e+300       -1e+300       -1e+300       -1e+300       -1e+300       -1e+300       -1e+300       -1e+300       -1e+300       -1e+300       -1e+300       -1e+300       -1e+300       -1e+300       -1e+300
        5.314      -1.21176      -1.37305      -1.58065      -1.43794      -1.31056      -1.70087      -1.67332      -1.69059      -1.75939      -2.00466      -2.09275      -2.30313      -2.54643       -2.9586      -3.07433      -3.07867      -3.01554      -2.64273      -2.50736      -3.39573      -3.95604      -4.28976      -4.27038      -4.46754      -4.65737      -4.98268      -5.11885       -5.3206      -5.41883      -5.41883      -5.34855      -5.32841      -5.23851      -5.35528      -5.61326      -5.73155      -5.67977      -5.81675       -1e+300       -1e+300       -1e+300       -1e+300       -1e+300       -1e+300       -1e+300       -1e+300       -1e+300       -1e+300       -1e+300       -1e+300       -1e+300       -1e+300       -1e+300       -1e+300       -1e+300
        5.316      -4.88784      -4.88522      -5.17703      -5.11314      -5.27079      -5.23414      -5.09131      -5.05482      -5.00038       -5.3963       -5.8065      -6.13111      -6.43378      -6.70479      -6.68243      -6.65239      -6.58007      -6.28766      -6.72783      -7.66143      -7.99134      -8.08056      -8.13961      -8.28218      -8.42842       -8.7694      -8.98285      -9.07121      -9.10626      -9.10626      -9.00901       -9.1031       -8.9471      -9.03153      -9.21734      -9.31404      -9.27321      -9.40784       -1e+300       -1e+300       -1e+300       -1e+300       -1e+300       -1e+300       -1e+300       -1e+300       -1e+300       -1e+300       -1e+300       -1e+300       -1e+300       -1e+300       -1e+300       -1e+300       -1e+300
        5.318      -8.76865      -8.75433      -9.01118      -8.95444      -9.09866      -9.01367      -8.98175      -8.92943      -8.87811      -9.29072      -9.74373      -10.1363      -10.4489      -10.5425      -10.6227        -10.73      -10.9086      -11.0946      -11.6756      -11.9942      -12.0921      -11.9934      -12.2139       -12.296      -12.4714      -12.8169       -13.087      -13.0412      -13.0189      -13.0189      -13.0263      -13.1036      -12.8581      -12.9554      -13.0929      -13.1732      -13.1153      -13.2921       -1e+300       -1e+300       -1e+300       -1e+300       -1e+300       -1e+300       -1e+300       -1e+300       -1e+300       -1e+300       -1e+300       -1e+300       -1e+300       -1e+300       -1e+300       -1e+300       -1e+300
         5.32      0.639118       0.61143      0.410863      0.549143       0.56521      0.610585      0.644947      0.618308      0.531815      0.179835     -0.173931     -0.579397     -0.899587      -1.06089      -1.34866      -1.72192      -2.37921       -2.7089       -2.6151      -2.50011      -2.52292      -2.50968      -2.68524      -2.74273      -3.02712      -3.24248      -3.45664        -3.352      -3.31357      -3.31357      -3.22828      -3.25798      -2.97978      -3.05583      -3.08934      -3.11822      -3.08084      -3.20867       -1e+300       -1e+300       -1e+300       -1e+300       -1e+300       -1e+300       -1e+300       -1e+300       -1e+300       -1e+300       -1e+300       -1e+300       -1e+300       -1e+300       -1e+300       -1e+300       -1e+300
        5.322        9.3632        9.2791        9.0952       9.31583       9.50016       9.49694       9.40911       9.31439       9.19958       8.93644       8.66809       8.23632       7.94031       7.65143       7.08272       6.41126       5.64062       5.38461        6.3862       6.39996       6.39142        6.3239       6.28225       6.14921        5.8696       5.76222       5.59057       5.68279       5.74098       5.74098       5.91135       5.93279       6.27076       6.19004       6.24103       6.24815       6.27848       6.14431       -1e+300       -1e+300       -1e+300       -1e+300       -1e+300       -1e+300       -1e+300       -1e+300       -1e+300       -1e+300       -1e+300       -1e+300       -1e+300       -1e+300       -1e+300       -1e+300       -1e+300
        5.324       2.33937       2.22775       2.03916       2.26262       2.42717       2.42611       2.32791       2.26683       2.05114       1.82307        1.5345       1.09598      0.844702      0.473076     -0.327649       -1.0675      -1.69381      -1.95938     -0.663489     -0.692817     -0.708809     -0.722129     -0.728026       -1.0535      -1.28633      -1.25438      -1.43132      -1.40226      -1.30422      -1.30422      -1.16851      -1.12025     -0.813912     -0.928439     -0.842422     -0.813635     -0.812247      -0.93526       -1e+300       -1e+300       -1e+300       -1e+300       -1e+300       -1e+300       -1e+300       -1e+300       -1e+300       -1e+300       -1e+300       -1e+300       -1e+300       -1e+300       -1e+300       -1e+300       -1e+300
        5.326     -0.141145     -0.285277     -0.540928     -0.472084      -0.38435     0.0639822    -0.0687516     -0.170427     -0.424703     -0.613214     -0.897395      -1.33217      -1.61964      -2.22415      -3.09436      -3.79034      -4.36126      -4.52899      -3.28377      -3.41145      -3.47675      -3.36411      -3.34867      -3.68641      -3.84958       -3.7728      -3.96404       -4.0311      -3.93891      -3.93891      -3.84519      -3.79515      -3.56097      -3.67513      -3.56531      -3.52366       -3.5441      -3.68148       -1e+300       -1e+300       -1e+300       -1e+300       -1e+300       -1e+300       -1e+300       -1e+300       -1e+300       -1e+300       -1e+300       -1e+300       -1e+300       -1e+300       -1e+300       -1e+300       -1e+300
        5.328      -3.58993      -3.89904      -3.99364      -3.89266      -3.70853      -3.27889      -3.45368      -3.55734      -3.74527      -3.96411      -4.36997      -4.78205      -5.07301      -5.78432      -6.59899      -7.18284        -7.662      -7.71858      -6.73493       -7.0831      -7.19842      -7.03765      -7.04064      -7.29459      -7.34644      -7.30222      -7.47805      -7.64569      -7.57347      -7.57347      -7.49602      -7.47586      -7.32341      -7.39812      -7.28917        -7.241      -7.30076      -7.43991       -1e+300       -1e+300       -1e+300       -1e+300       -1e+300       -1e+300       -1e+300       -1e+300       -1e+300       -1e+300       -1e+300       -1e+300       -1e+300       -1e+300       -1e+300       -1e+300       -1e+300
         5.33      -8.80237      -9.14396      -8.75088      -8.29431      -8.30779      -8.47425       -8.6157      -8.67838      -8.84504      -9.09991      -9.44584      -9.78184      -10.2003      -10.8286      -11.4619      -11.8932      -12.1893      -12.1886       -11.707      -12.2533      -12.4653      -12.4753      -12.4209      -12.5004      -12.4763      -12.4781       -12.602      -12.8193      -12.7716      -12.7716      -12.7364      -12.7569      -12.6255      -12.6645      -12.5886      -12.5328      -12.6163       -12.764       -1e+300       -1e+300       -1e+300       -1e+300       -1e+300       -1e+300       -1e+300       -1e+300       -1e+300       -1e+300       -1e+300       -1e+300       -1e+300       -1e+300       -1e+300       -1e+300       -1e+300
        5.332      -1.60163      -1.60654     -0.843049     -0.467366     -0.706734      -1.05906      -1.09981       -1.2109      -1.47073      -1.74741      -2.06823      -2.37909      -2.74285      -3.26184       -3.7308      -4.04755      -4.24447      -4.29914      -4.31971      -4.81192      -5.08394      -5.24621      -5.13486      -5.10911       -4.9852      -4.96046      -4.99335      -5.21073      -5.21176      -5.21176      -5.19563      -5.27995      -5.18534      -5.07684      -4.94986      -4.85609      -4.95528      -5.12668       -1e+300       -1e+300       -1e+300       -1e+300       -1e+300       -1e+300       -1e+300       -1e+300       -1e+300       -1e+300       -1e+300       -1e+300       -1e+300       -1e+300       -1e+300       -1e+300       -1e+300
        5.334       3.65266       3.96287       4.63269       4.42366       4.16311        4.0685       4.04367       3.76777       3.50723       3.14337       2.93264       2.54073       2.29263        1.7776       1.44213       1.22626       1.06482      0.915047      0.669234      0.384176      0.287489      0.130208     0.0106657     0.0171843      0.121311      0.174977      0.210576    -0.0191302   -0.00396673   -0.00396673    -0.0430185     -0.155202    -0.0184187      0.210754      0.309199      0.440304      0.328598      0.148889       -1e+300       -1e+300       -1e+300       -1e+300       -1e+300       -1e+300       -1e+300       -1e+300       -1e+300       -1e+300       -1e+300       -1e+300       -1e+300       -1e+300       -1e+300       -1e+300       -1e+300
        5.336          2.02       2.30736        2.3045       2.03453       1.88982       1.94409       1.76666        1.5959       1.31134       1.03968      0.967415      0.585759      0.276255     -0.115013     -0.436633      -0.62028     -0.775831      -1.01076      -1.11873      -1.19366      -1.08023      -1.24336      -1.70488      -1.88825      -1.87095      -1.70705      -1.68158      -1.95053      -1.91776      -1.91776      -2.02791       -2.1558       -2.0154      -1.72576       -1.6429      -1.48134      -1.57721      -1.72764       -1e+300       -1e+300       -1e+300       -1e+300       -1e+300       -1e+300       -1e+300       -1e+300       -1e+300       -1e+300       -1e+300       -1e+300       -1e+300       -1e+300       -1e+300       -1e+300       -1e+300
        5.338       4.00412       3.97376       3.84412        3.7066       3.88784        3.7142       3.45021       3.25112       3.06036       2.92279       2.94603       2.71763       2.40815        2.0495       1.76058       1.58962       1.42923        1.2096       1.04476         1.226       1.44899       1.12966      0.399377      0.221713      0.164506      0.398207      0.369689     0.0148403     0.0287675     0.0287675     -0.132117     -0.292701     -0.114966      0.176344      0.197702      0.383653      0.276295      0.104523       -1e+300       -1e+300       -1e+300       -1e+300       -1e+300       -1e+300       -1e+300       -1e+300       -1e+300       -1e+300       -1e+300       -1e+300       -1e+300       -1e+300       -1e+300       -1e+300       -1e+300
         5.34       4.37406       4.38871       4.61483       4.48611       4.39114       4.01364        3.6384       3.47776       3.32458       3.48056       3.47764       3.26342       2.97127       2.55209       2.32881       2.18747       2.03939       1.74329       1.68227       1.88966       1.56845       1.12938      0.665317      0.802523      0.698551      0.935122      0.803373      0.380854      0.365565      0.365565      0.207911      0.067816       0.23509      0.489578      0.454097      0.629973      0.526829      0.357931       -1e+300       -1e+300       -1e+300       -1e+300       -1e+300       -1e+300       -1e+300       -1e+300       -1e+300       -1e+300       -1e+300       -1e+300       -1e+300       -1e+300       -1e+300       -1e+300       -1e+300
        5.342     -0.544096     -0.337122       -0.5818     -0.629338     -0.644438      -1.01411      -1.47132      -1.70488      -1.93761       -1.5892      -1.68321      -1.76085      -1.96603      -2.37924      -2.60887      -2.78962      -2.95139      -3.22134      -3.27673      -3.21277      -3.86684      -4.29496      -4.43977      -3.99137      -4.18224      -4.06765      -4.23539      -4.69025      -4.69454      -4.69454      -4.84346      -4.95241        -4.806       -4.6265      -4.63386      -4.45721      -4.55493      -4.74431       -1e+300       -1e+300       -1e+300       -1e+300       -1e+300       -1e+300       -1e+300       -1e+300       -1e+300       -1e+300       -1e+300       -1e+300       -1e+300       -1e+300       -1e+300       -1e+300       -1e+300
        5.344      -6.05274      -6.23067      -6.62873      -6.53843      -6.55204      -6.74108      -6.76033      -6.90097      -7.04266      -7.27279      -7.43407      -7.59904      -7.86395      -8.22158      -8.60077      -8.82949      -8.94657      -9.08587      -9.22555      -9.44367      -9.84029      -10.2156      -10.3571      -9.74328      -10.0591      -9.98598      -10.2431      -10.7382      -10.7452      -10.7452      -10.9153      -11.0164      -10.9165      -10.8025      -10.8517      -10.6802      -10.8158      -10.9953       -1e+300       -1e+300       -1e+300       -1e+300       -1e+300       -1e+300       -1e+300       -1e+300       -1e+300       -1e+300       -1e+300       -1e+300       -1e+300       -1e+300       -1e+300       -1e+300       -1e+300
        5.346      -1.73158      -1.90322      -2.23211      -2.09291      -2.06818       -2.0141      -1.74879      -1.99709      -2.31095      -2.58965      -2.80843      -3.06234       -3.2891      -3.69586       -3.9544      -4.10558      -4.20252       -4.3868      -4.59807       -5.0118      -4.92665      -5.29427       -5.3344      -5.02008      -5.22633      -5.32511      -5.59448      -6.04921      -6.10049      -6.10049      -6.23038      -6.28244      -6.21995      -6.10045      -6.10579      -5.96466      -6.08955      -6.24877       -1e+300       -1e+300       -1e+300       -1e+300       -1e+300       -1e+300       -1e+300       -1e+300       -1e+300       -1e+300       -1e+300       -1e+300       -1e+300       -1e+300       -1e+300       -1e+300       -1e+300
        5.348    -0.0160999      0.331291      0.303465      0.328072      0.371973      0.266413      0.224978      0.102172    -0.0480918      -0.23555     -0.452327     -0.742284     -0.938201      -1.24235      -1.36448       -1.4845       -1.6051      -1.81074      -2.08506      -2.39268      -2.16019      -2.61068      -2.66547       -2.6062      -2.67697       -2.9057      -3.17643      -3.60428      -3.70143      -3.70143      -3.78118       -3.8066      -3.78094      -3.69445      -3.66249      -3.56517      -3.68899      -3.84009       -1e+300       -1e+300       -1e+300       -1e+300       -1e+300       -1e+300       -1e+300       -1e+300       -1e+300       -1e+300       -1e+300       -1e+300       -1e+300       -1e+300       -1e+300       -1e+300       -1e+300
         5.35       1.52578       2.40295       2.30602       2.39366       2.40259       2.14197       2.08136       1.98802       1.91591       1.72036       1.47042       1.08088      0.831797      0.703253      0.635273      0.491958      0.388159      0.140309     -0.165462     -0.188013    -0.0952501     -0.495437     -0.528168     -0.535988      -0.55119     -0.854259      -1.10831      -1.48915      -1.59858      -1.59858      -1.63819      -1.62848      -1.50132      -1.50092      -1.46172       -1.4172      -1.51352      -1.59179       -1e+300       -1e+300       -1e+300       -1e+300       -1e+300       -1e+300       -1e+300       -1e+300       -1e+300       -1e+300       -1e+300       -1e+300       -1e+300       -1e+300       -1e+300       -1e+300       -1e+300
        5.352      -4.33407       -4.1216      -4.26144      -4.15816      -4.17155      -4.51476       -4.4753      -4.56226      -4.60131      -4.66948      -4.88658      -5.51744       -6.1183      -6.00553       -6.1774      -6.31559      -6.45876      -6.82909       -7.0026      -6.84866       -6.8731      -7.01232      -7.05826      -7.10292      -7.10436      -7.46618      -7.70876      -8.07671      -8.16002      -8.16002      -8.21581      -8.21953      -8.18789      -8.08392      -8.02304      -8.02448      -8.15563      -8.26991       -1e+300       -1e+300       -1e+300       -1e+300       -1e+300       -1e+300       -1e+300       -1e+300       -1e+300       -1e+300       -1e+300       -1e+300       -1e+300       -1e+300       -1e+300       -1e+300       -1e+300
        5.354      -6.95413      -7.02152      -7.19283      -7.13141      -7.14556      -7.47741      -7.45832      -7.46802      -7.48204      -7.49671      -7.74365      -8.28451      -8.67371       -8.9745      -9.22063      -9.51441      -9.81124       -10.017      -9.76106       -9.8128      -9.89971      -9.95532      -9.85941      -9.93474      -9.99166      -10.3897      -10.6052       -10.943      -11.0207      -11.0207       -11.043      -11.0316      -10.9917      -10.9124      -10.8956      -10.9284      -10.9962      -11.0765       -1e+300       -1e+300       -1e+300       -1e+300       -1e+300       -1e+300       -1e+300       -1e+300       -1e+300       -1e+300       -1e+300       -1e+300       -1e+300       -1e+300       -1e+300       -1e+300       -1e+300
        5.356     -0.339411      0.171467    -0.0138528     0.0726326    -0.0053246     -0.310103     -0.330266     -0.286711     -0.314565     -0.366379     -0.673612      -1.15975      -1.43718      -1.94852      -2.37305      -2.65381      -2.94349      -2.92311      -2.52114      -2.41644      -2.50725      -2.72477      -2.51856      -2.60145      -2.68401      -3.09776      -3.27751      -3.57619      -3.66999      -3.66999      -3.60742      -3.56596      -3.48443      -3.40583      -3.39997      -3.46529      -3.49256      -3.56295       -1e+300       -1e+300       -1e+300       -1e+300       -1e+300       -1e+300       -1e+300       -1e+300       -1e+300       -1e+300       -1e+300       -1e+300       -1e+300       -1e+300       -1e+300       -1e+300       -1e+300
        5.358      -5.53981      -4.97685      -5.25998      -5.05665      -5.17572      -5.56479      -5.53748      -5.51954      -5.54205      -5.64076      -6.00849      -6.46949      -6.91121      -7.57276      -7.84532      -8.00207      -8.13362      -7.89721      -7.53724      -7.49345      -7.52208      -7.72759      -7.77391      -7.88457      -8.00912      -8.45604      -8.62972      -8.92041      -9.00082      -9.00082       -8.9594      -8.93211      -8.87315      -8.81472      -8.84034      -8.94146      -8.94763       -9.0439       -1e+300       -1e+300       -1e+300       -1e+300       -1e+300       -1e+300       -1e+300       -1e+300       -1e+300       -1e+300       -1e+300       -1e+300       -1e+300       -1e+300       -1e+300       -1e+300       -1e+300
         5.36       -0.8418     -0.516441     -0.781665     -0.622498     -0.715356     -0.964438     -0.971789      -1.05584      -1.16175      -1.35717      -1.68337       -2.3638      -2.73011      -2.94388      -3.01287      -3.02672      -2.99694      -2.78781      -2.78919      -2.80127      -2.72221      -2.80769      -3.09769       -3.1758      -3.28594      -3.71245      -3.86675      -4.09127        -4.133        -4.133       -4.0547      -3.98572      -3.90072      -3.81823      -3.81944      -3.92686      -3.89937      -3.99865       -1e+300       -1e+300       -1e+300       -1e+300       -1e+300       -1e+300       -1e+300       -1e+300       -1e+300       -1e+300       -1e+300       -1e+300       -1e+300       -1e+300       -1e+300       -1e+300       -1e+300
        5.362      0.668775      0.782306      0.570953      0.590716      0.584858      0.533482      0.420845      0.290348     0.0927808     -0.130853     -0.600615      -0.98131      -1.07685       -1.3043        -1.301       -1.1774      -1.02891      -1.15295      -1.52299      -1.43696      -1.20499      -1.43804      -1.80324      -1.90786      -1.98369      -2.39273      -2.54929      -2.74434      -2.77096      -2.77096      -2.68995      -2.62161      -2.55693      -2.48221      -2.50224       -2.6451      -2.62156      -2.74307       -1e+300       -1e+300       -1e+300       -1e+300       -1e+300       -1e+300       -1e+300       -1e+300       -1e+300       -1e+300       -1e+300       -1e+300       -1e+300       -1e+300       -1e+300       -1e+300       -1e+300
        5.364      -5.28923      -5.31532      -5.59124       -5.5778      -5.63366       -5.5279       -5.6275      -5.68611       -5.9941      -6.24604      -6.71586      -6.88885      -6.95833      -7.24634       -7.1899      -6.94746      -6.98485      -7.30612      -7.60833      -7.45004      -7.34951      -7.82795      -8.19306      -8.26704      -8.31403      -8.71533      -8.88552       -9.0876      -9.09426      -9.09426      -9.01072      -8.97676      -8.96303      -8.91429      -8.98987      -9.18067       -9.1596      -9.32081       -1e+300       -1e+300       -1e+300       -1e+300       -1e+300       -1e+300       -1e+300       -1e+300       -1e+300       -1e+300       -1e+300       -1e+300       -1e+300       -1e+300       -1e+300       -1e+300       -1e+300
        5.366      -4.34006       -4.4788      -4.94964      -4.79246      -4.90995      -4.89383      -4.94485      -4.99964       -5.4147      -5.48742      -5.85465      -5.97772      -5.85988      -6.54726       -6.6073      -6.33998      -6.31026      -6.46155      -6.50609       -6.4951      -6.69078      -7.06798      -7.40746      -7.41999      -7.45746      -7.80312      -7.95613      -8.13671      -8.09641      -8.09641      -7.99434      -7.95423      -7.94904      -7.88215      -7.92656      -8.14812      -8.12984      -8.31159       -1e+300       -1e+300       -1e+300       -1e+300       -1e+300       -1e+300       -1e+300       -1e+300       -1e+300       -1e+300       -1e+300       -1e+300       -1e+300       -1e+300       -1e+300       -1e+300       -1e+300
        5.368      -4.25289      -4.34626      -4.98089      -4.80782      -4.86648      -5.12768      -5.13887      -5.16492      -5.32487      -5.20923      -5.42544      -5.53496       -5.5451      -6.45589      -6.31281      -6.16214      -6.43021      -6.23811      -6.20994       -6.4733      -6.59586      -6.89439      -7.22283      -7.22523      -7.30423      -7.62691      -7.77472      -7.97063      -7.89027      -7.89027      -7.87266      -7.85372      -7.87539      -7.80667      -7.85637      -8.07807      -8.09794      -8.28811       -1e+300       -1e+300       -1e+300       -1e+300       -1e+300       -1e+300       -1e+300       -1e+300       -1e+300       -1e+300       -1e+300       -1e+300       -1e+300       -1e+300       -1e+300       -1e+300       -1e+300
         5.37     -0.963327       -1.2059      -1.72012      -1.75051       -1.7903      -2.04091       -2.0877      -2.14186      -2.39349      -1.98471      -1.92143      -2.17708      -2.30314      -2.88431      -2.85733      -2.98686       -3.0118      -2.86665      -2.90158      -3.15841      -3.17886      -3.54685      -3.84151      -3.74634      -3.88277      -4.18774      -4.31193      -4.51785      -4.44344      -4.44344      -4.45168      -4.45354       -4.5014      -4.43184      -4.41791      -4.63623      -4.67911      -4.87707       -1e+300       -1e+300       -1e+300       -1e+300       -1e+300       -1e+300       -1e+300       -1e+300       -1e+300       -1e+300       -1e+300       -1e+300       -1e+300       -1e+300       -1e+300       -1e+300       -1e+300