# Probe 0 (-0.35 0 0.005)
# Probe 1 (-0.35 0 0.0155)
# Probe 2 (-0.35 0 0.02653)
# Probe 3 (-0.35 0 0.0381)
# Probe 4 (-0.35 0 0.05026)
# Probe 5 (-0.35 0 0.06302)
# Probe 6 (-0.35 0 0.07642)
# Probe 7 (-0.35 0 0.08)
# Probe 8 (-0.35 0 0.09049)
# Probe 9 (-0.35 0 0.10527)
# Probe 10 (-0.35 0 0.12078)
# Probe 11 (-0.35 0 0.13707)
# Probe 12 (-0.35 0 0.15417)
# Probe 13 (-0.35 0 0.17213)
# Probe 14 (-0.35 0 0.19099)
# Probe 15 (-0.35 0 0.2)
# Probe 16 (-0.35 0 0.21079)
# Probe 17 (-0.35 0 0.23157)
# Probe 18 (-0.35 0 0.2534)
# Probe 19 (-0.35 0 0.27632)
# Probe 20 (-0.35 0 0.30039)
# Probe 21 (-0.35 0 0.32566)
# Probe 22 (-0.35 0 0.35219)
# Probe 23 (-0.35 0 0.38005)
# Probe 24 (-0.35 0 0.4093)
# Probe 25 (-0.35 0 0.44002)
# Probe 26 (-0.35 0 0.47227)
# Probe 27 (-0.35 0 0.50613)
# Probe 28 (-0.35 0 0.54169)
# Probe 29 (-0.35 0 0.57903)
# Probe 30 (-0.35 0 0.61823)
# Probe 31 (-0.35 0 0.65939)
# Probe 32 (-0.35 0 0.70261)
# Probe 33 (-0.35 0 0.74799)
# Probe 34 (-0.35 0 0.79564)
# Probe 35 (-0.35 0 0.84567)
# Probe 36 (-0.35 0 0.8982)
# Probe 37 (-0.35 0 0.95336)
# Probe 38 (-0.35 0 1.01128)
# Probe 39 (-0.35 0 1.0721)
# Probe 40 (-0.35 0 1.13595)
# Probe 41 (-0.35 0 1.203)
# Probe 42 (-0.35 0 1.2734)
# Probe 43 (-0.35 0 1.34732)
# Probe 44 (-0.35 0 1.42493)
# Probe 45 (-0.35 0 1.50643)
# Probe 46 (-0.35 0 1.592)
# Probe 47 (-0.35 0 1.68185)
# Probe 48 (-0.35 0 1.77619)
# Probe 49 (-0.35 0 1.87525)
# Probe 50 (-0.35 0 1.97927)
# Probe 51 (-0.35 0 2.08848)
# Probe 52 (-0.35 0 2.20315)
# Probe 53 (-0.35 0 2.32356)
# Probe 54 (-0.35 0 2.44999)
#       Probe             0             1             2             3             4             5             6             7             8             9            10            11            12            13            14            15            16            17            18            19            20            21            22            23            24            25            26            27            28            29            30            31            32            33            34            35            36            37            38            39            40            41            42            43            44            45            46            47            48            49            50            51            52            53            54
#        Time
        5.302             (2.89212 0.538673 -0.115582)             (4.3949 0.698326 0.318642)             (4.41537 0.284806 0.354017)             (4.78918 -0.211559 0.10663)             (5.50014 -0.0315504 0.199937)             (6.16194 -0.691974 0.275452)             (6.20563 -1.14862 0.24513)             (6.23124 -0.96495 0.108864)             (6.5692 -0.695335 0.316176)             (7.06658 -0.0246972 0.12933)             (6.87756 0.170253 0.0547174)             (7.07197 0.326158 0.879966)             (7.38905 0.490523 0.976379)             (6.88195 0.439857 0.68309)             (7.0289 0.441762 0.584258)             (7.24395 0.436002 0.580592)             (7.52719 0.11406 0.529491)             (7.8908 -0.0479658 -0.137332)             (7.96052 -0.619511 0.0616862)             (8.41759 -1.48296 -0.572726)             (7.69173 -0.939799 -0.275273)             (7.73906 -0.194723 -0.0619277)             (8.32046 0.341449 0.0402852)             (9.30829 0.445566 0.0012968)             (9.32908 0.413881 -0.139999)             (8.93767 0.591711 -0.0468374)             (8.96685 0.68393 -0.206098)             (8.69113 1.23257 -0.189372)             (9.3841 1.15298 -0.211219)             (9.3841 1.15298 -0.211219)             (9.74829 0.181362 -0.859461)             (9.37054 -0.300361 -0.593438)             (9.05395 -0.566197 -0.463288)             (9.1055 -0.263296 -0.441126)             (9.01127 -0.121936 -0.285071)             (8.95125 -0.045621 -0.161693)             (8.62501 0.008475 -0.136028)             (8.1384 -0.193083 -0.124601)             (-1e+300 -1e+300 -1e+300)             (-1e+300 -1e+300 -1e+300)             (-1e+300 -1e+300 -1e+300)             (-1e+300 -1e+300 -1e+300)             (-1e+300 -1e+300 -1e+300)             (-1e+300 -1e+300 -1e+300)             (-1e+300 -1e+300 -1e+300)             (-1e+300 -1e+300 -1e+300)             (-1e+300 -1e+300 -1e+300)             (-1e+300 -1e+300 -1e+300)             (-1e+300 -1e+300 -1e+300)             (-1e+300 -1e+300 -1e+300)             (-1e+300 -1e+300 -1e+300)             (-1e+300 -1e+300 -1e+300)             (-1e+300 -1e+300 -1e+300)             (-1e+300 -1e+300 -1e+300)             (-1e+300 -1e+300 -1e+300)
        5.304             (2.62996 0.626781 -0.0887484)             (4.27372 0.514547 0.30808)             (4.12814 -0.0415524 0.361942)             (4.571 -0.367602 0.0152979)             (5.52624 -0.0735318 0.299697)             (6.04208 -0.310069 0.586935)             (6.09318 -0.876794 0.605971)             (6.36171 -0.933313 0.351453)             (6.59079 -0.532841 0.256143)             (6.63519 -0.0297139 0.0619359)             (7.10271 0.094387 0.0652126)             (7.45912 0.338551 0.80714)             (7.34488 0.239704 0.579745)             (7.15453 0.32051 0.534037)             (7.09975 0.48705 0.631467)             (7.20194 0.554015 0.540897)             (7.16381 0.286882 0.448348)             (8.28155 -0.353929 0.0786826)             (7.93823 -0.570611 -0.179327)             (8.33575 -1.60133 -0.726673)             (7.91191 -1.22558 -0.52296)             (7.89069 -0.251421 -0.208848)             (8.60873 0.346848 0.184833)             (9.46847 0.410833 0.153527)             (9.34055 0.421549 -0.0875467)             (8.8441 0.625184 0.0218553)             (8.76056 0.647977 -0.0971578)             (8.69264 1.31914 -0.0950559)             (9.30828 1.11279 -0.179927)             (9.30828 1.11279 -0.179927)             (9.64138 0.0829551 -0.939714)             (9.23948 -0.186203 -0.673668)             (8.94415 -0.473859 -0.456775)             (8.96268 -0.327203 -0.413222)             (8.97458 -0.332124 -0.245681)             (8.93878 -0.199131 -0.167149)             (8.64292 -0.121539 -0.13494)             (8.19997 -0.325863 -0.103967)             (-1e+300 -1e+300 -1e+300)             (-1e+300 -1e+300 -1e+300)             (-1e+300 -1e+300 -1e+300)             (-1e+300 -1e+300 -1e+300)             (-1e+300 -1e+300 -1e+300)             (-1e+300 -1e+300 -1e+300)             (-1e+300 -1e+300 -1e+300)             (-1e+300 -1e+300 -1e+300)             (-1e+300 -1e+300 -1e+300)             (-1e+300 -1e+300 -1e+300)             (-1e+300 -1e+300 -1e+300)             (-1e+300 -1e+300 -1e+300)             (-1e+300 -1e+300 -1e+300)             (-1e+300 -1e+300 -1e+300)             (-1e+300 -1e+300 -1e+300)             (-1e+300 -1e+300 -1e+300)             (-1e+300 -1e+300 -1e+300)
        5.306             (2.38575 0.620803 0.0181361)             (3.90194 0.242065 0.287404)             (3.75611 -0.483965 0.513027)             (4.2998 -0.490673 0.0779271)             (5.70754 -0.131582 0.238613)             (5.94318 -0.0926428 0.458778)             (5.89083 -0.366979 0.791454)             (6.44453 -0.444256 0.308899)             (6.66234 -0.0904548 -0.0665868)             (6.53008 -0.0127278 -0.057802)             (7.43142 0.283711 0.0808762)             (7.61252 0.311959 0.357845)             (7.22948 0.139784 0.383501)             (7.38914 0.230661 0.285958)             (7.05262 0.28334 0.225048)             (7.02399 0.472883 0.0424339)             (7.04118 0.275177 0.021451)             (8.22862 -0.195531 0.16128)             (8.01963 -0.620691 -0.283209)             (8.2472 -1.31257 -0.742063)             (8.08121 -1.31189 -0.621172)             (8.15103 -0.260478 -0.16311)             (8.91616 0.199113 0.397577)             (9.56721 0.339846 0.184933)             (9.32397 0.392814 -0.135655)             (8.79622 0.655654 -0.027448)             (8.62829 0.614599 -0.0361712)             (8.7905 1.32154 0.00572693)             (9.21205 1.06501 -0.175374)             (9.21205 1.06501 -0.175374)             (9.49777 0.0282652 -0.995163)             (9.10845 -0.0364914 -0.721647)             (8.84092 -0.375572 -0.422286)             (8.84102 -0.404167 -0.380571)             (8.91641 -0.543949 -0.209608)             (8.8969 -0.363271 -0.171362)             (8.65242 -0.255939 -0.116328)             (8.27349 -0.442438 -0.07147)             (-1e+300 -1e+300 -1e+300)             (-1e+300 -1e+300 -1e+300)             (-1e+300 -1e+300 -1e+300)             (-1e+300 -1e+300 -1e+300)             (-1e+300 -1e+300 -1e+300)             (-1e+300 -1e+300 -1e+300)             (-1e+300 -1e+300 -1e+300)             (-1e+300 -1e+300 -1e+300)             (-1e+300 -1e+300 -1e+300)             (-1e+300 -1e+300 -1e+300)             (-1e+300 -1e+300 -1e+300)             (-1e+300 -1e+300 -1e+300)             (-1e+300 -1e+300 -1e+300)             (-1e+300 -1e+300 -1e+300)             (-1e+300 -1e+300 -1e+300)             (-1e+300 -1e+300 -1e+300)             (-1e+300 -1e+300 -1e+300)
        5.308             (2.19233 0.48552 0.187545)             (3.48536 -0.0677453 0.375479)             (3.5504 -0.888014 0.694236)             (3.93828 -0.606844 0.319457)             (5.5992 -0.175755 0.186475)             (5.56003 -0.339249 0.462253)             (5.49659 -0.337602 0.461787)             (6.11066 -0.384684 0.22188)             (6.37252 0.128891 -0.0700383)             (6.76862 0.323254 -0.132295)             (7.57674 0.777798 -0.0275085)             (7.75993 0.501972 0.135984)             (7.18041 0.148793 0.109853)             (7.33008 0.18935 -0.121412)             (7.03367 0.0707015 -0.313228)             (7.09743 0.106179 -0.276772)             (7.4995 -0.0244768 -0.122409)             (7.91608 -0.224516 -0.348585)             (8.13076 -0.696756 -0.379466)             (8.24754 -0.726731 -0.625207)             (8.20669 -1.0041 -0.567401)             (8.31465 -0.361121 0.0320595)             (8.97048 -0.0365521 0.512009)             (9.55458 0.257656 0.0791876)             (9.29024 0.344343 -0.256612)             (8.82531 0.676855 -0.167972)             (8.62513 0.601579 -0.021772)             (8.95167 1.24551 0.0794491)             (9.10032 1.01596 -0.194078)             (9.10032 1.01596 -0.194078)             (9.33759 0.0111 -1.01953)             (8.98769 0.121753 -0.738056)             (8.75109 -0.28491 -0.374225)             (8.75227 -0.481606 -0.354997)             (8.84789 -0.739913 -0.187983)             (8.83956 -0.526262 -0.17996)             (8.65783 -0.387772 -0.0898416)             (8.35458 -0.536778 -0.0362673)             (-1e+300 -1e+300 -1e+300)             (-1e+300 -1e+300 -1e+300)             (-1e+300 -1e+300 -1e+300)             (-1e+300 -1e+300 -1e+300)             (-1e+300 -1e+300 -1e+300)             (-1e+300 -1e+300 -1e+300)             (-1e+300 -1e+300 -1e+300)             (-1e+300 -1e+300 -1e+300)             (-1e+300 -1e+300 -1e+300)             (-1e+300 -1e+300 -1e+300)             (-1e+300 -1e+300 -1e+300)             (-1e+300 -1e+300 -1e+300)             (-1e+300 -1e+300 -1e+300)             (-1e+300 -1e+300 -1e+300)             (-1e+300 -1e+300 -1e+300)             (-1e+300 -1e+300 -1e+300)             (-1e+300 -1e+300 -1e+300)
         5.31             (2.10192 0.178303 0.337321)             (3.2131 -0.320152 0.569814)             (3.62838 -1.04159 0.869173)             (3.71692 -0.696147 0.557176)             (5.26542 -0.284723 0.312285)             (5.36317 -0.623304 0.719297)             (5.19189 -0.26946 0.583749)             (5.58406 -0.293125 0.566638)             (6.13911 0.131203 0.264141)             (7.10696 0.506597 0.238858)             (7.46154 1.07976 0.342011)             (7.65842 0.32103 0.282806)             (7.03314 0.13843 -0.123501)             (7.25111 0.0148213 -0.488161)             (7.29529 -0.0164605 -0.400944)             (7.46004 -0.0954343 -0.339629)             (7.70459 -0.222888 -0.427362)             (7.98097 -0.320684 -0.78312)             (8.13573 -0.713323 -0.610753)             (8.30436 -0.0949293 -0.448876)             (8.24911 -0.383059 -0.481594)             (8.21684 -0.42625 0.130608)             (8.7186 -0.194616 0.467056)             (9.41891 0.18048 -0.122621)             (9.24788 0.287214 -0.400431)             (8.9415 0.673249 -0.328557)             (8.77389 0.604026 -0.0323387)             (9.1008 1.10921 0.103785)             (8.97589 0.966668 -0.230259)             (8.97589 0.966668 -0.230259)             (9.17604 0.01822 -1.01379)             (8.88257 0.260674 -0.732668)             (8.6786 -0.211683 -0.330531)             (8.7011 -0.545678 -0.345727)             (8.78007 -0.904039 -0.186301)             (8.78187 -0.67532 -0.198141)             (8.66147 -0.509411 -0.0670459)             (8.43584 -0.606518 -0.00833979)             (-1e+300 -1e+300 -1e+300)             (-1e+300 -1e+300 -1e+300)             (-1e+300 -1e+300 -1e+300)             (-1e+300 -1e+300 -1e+300)             (-1e+300 -1e+300 -1e+300)             (-1e+300 -1e+300 -1e+300)             (-1e+300 -1e+300 -1e+300)             (-1e+300 -1e+300 -1e+300)             (-1e+300 -1e+300 -1e+300)             (-1e+300 -1e+300 -1e+300)             (-1e+300 -1e+300 -1e+300)             (-1e+300 -1e+300 -1e+300)             (-1e+300 -1e+300 -1e+300)             (-1e+300 -1e+300 -1e+300)             (-1e+300 -1e+300 -1e+300)             (-1e+300 -1e+300 -1e+300)             (-1e+300 -1e+300 -1e+300)
        5.312             (2.21359 -0.26418 0.341264)             (3.10966 -0.506293 0.7978)             (3.72933 -0.985131 1.06442)             (3.85185 -0.621457 0.541067)             (4.98593 -0.32598 0.32476)             (5.34613 -0.262265 0.977602)             (5.27612 -0.19788 0.910924)             (5.3566 -0.0413583 0.922404)             (6.177 0.0618726 0.673384)             (6.85161 0.226565 0.807369)             (7.54046 0.806304 0.546389)             (7.37274 0.489981 0.252143)             (6.71582 0.170916 -0.276587)             (7.37144 -0.0390125 -0.460363)             (7.37368 -0.172243 -0.568694)             (7.35416 -0.295207 -0.815979)             (7.61758 -0.323964 -0.91653)             (8.07584 -0.776369 -0.844214)             (8.0814 -0.458426 -0.742913)             (8.21626 0.420762 -0.272156)             (8.12275 0.382254 -0.468648)             (7.96337 -0.25845 0.0804357)             (8.35868 -0.206268 0.255325)             (9.20957 0.0964261 -0.353641)             (9.21329 0.211989 -0.512124)             (9.14249 0.634713 -0.429215)             (9.05224 0.608898 -0.0544217)             (9.15237 0.936121 0.0757662)             (8.83946 0.910857 -0.275569)             (8.83946 0.910857 -0.275569)             (9.02187 0.0275945 -0.982164)             (8.7928 0.351257 -0.716209)             (8.62284 -0.165562 -0.305941)             (8.68473 -0.590208 -0.357781)             (8.71572 -1.0295 -0.204142)             (8.72904 -0.80427 -0.226257)             (8.65906 -0.620902 -0.0577619)             (8.5021 -0.661757 0.00283554)             (-1e+300 -1e+300 -1e+300)             (-1e+300 -1e+300 -1e+300)             (-1e+300 -1e+300 -1e+300)             (-1e+300 -1e+300 -1e+300)             (-1e+300 -1e+300 -1e+300)             (-1e+300 -1e+300 -1e+300)             (-1e+300 -1e+300 -1e+300)             (-1e+300 -1e+300 -1e+300)             (-1e+300 -1e+300 -1e+300)             (-1e+300 -1e+300 -1e+300)             (-1e+300 -1e+300 -1e+300)             (-1e+300 -1e+300 -1e+300)             (-1e+300 -1e+300 -1e+300)             (-1e+300 -1e+300 -1e+300)             (-1e+300 -1e+300 -1e+300)             (-1e+300 -1e+300 -1e+300)             (-1e+300 -1e+300 -1e+300)
        5.314             (2.57081 -0.656774 0.150931)             (3.13299 -0.703186 0.883518)             (3.85659 -0.815025 0.95188)             (4.05029 -0.50472 0.416868)             (4.75371 0.000274978 0.278298)             (5.2121 0.428265 0.729347)             (5.66997 0.169048 0.876113)             (5.62293 0.182936 0.958012)             (6.35545 0.251228 0.887957)             (6.80503 0.207978 1.08208)             (7.25011 0.802694 0.752106)             (7.04588 0.506286 0.0841462)             (6.59038 0.192702 -0.370907)             (7.25219 -0.248966 -0.493968)             (7.15561 -0.620053 -0.848393)             (7.38664 -0.687948 -0.77189)             (7.73039 -0.680234 -0.564516)             (8.01342 -0.595822 -1.08405)             (7.97655 0.229854 -0.646558)             (7.85854 0.732158 -0.155351)             (7.86588 1.01178 -0.458523)             (7.79178 -0.000498471 -0.109958)             (8.16369 -0.114364 -0.102459)             (9.02565 -0.0113198 -0.551745)             (9.2202 0.113414 -0.553334)             (9.40217 0.590108 -0.425504)             (9.38551 0.622466 -0.1025)             (9.06884 0.756928 0.00139358)             (8.7002 0.846524 -0.323628)             (8.7002 0.846524 -0.323628)             (8.88751 0.0251621 -0.936291)             (8.72452 0.381999 -0.704055)             (8.59255 -0.143956 -0.312538)             (8.70656 -0.604973 -0.393653)             (8.66422 -1.10668 -0.238205)             (8.692 -0.901033 -0.262611)             (8.65417 -0.715466 -0.0692673)             (8.54949 -0.706398 -0.00978292)             (-1e+300 -1e+300 -1e+300)             (-1e+300 -1e+300 -1e+300)             (-1e+300 -1e+300 -1e+300)             (-1e+300 -1e+300 -1e+300)             (-1e+300 -1e+300 -1e+300)             (-1e+300 -1e+300 -1e+300)             (-1e+300 -1e+300 -1e+300)             (-1e+300 -1e+300 -1e+300)             (-1e+300 -1e+300 -1e+300)             (-1e+300 -1e+300 -1e+300)             (-1e+300 -1e+300 -1e+300)             (-1e+300 -1e+300 -1e+300)             (-1e+300 -1e+300 -1e+300)             (-1e+300 -1e+300 -1e+300)             (-1e+300 -1e+300 -1e+300)             (-1e+300 -1e+300 -1e+300)             (-1e+300 -1e+300 -1e+300)
        5.316             (2.97324 -0.81373 -0.100621)             (3.30534 -0.820498 0.77059)             (4.05848 -0.5428 0.44422)             (4.03047 -0.540772 0.438001)             (4.61883 0.47299 0.41049)             (5.3032 0.4472 0.24042)             (5.8948 0.526734 0.293212)             (6.07026 0.368032 0.334117)             (6.63502 0.464427 0.618685)             (7.11449 0.60162 0.683524)             (6.90159 0.716759 0.512403)             (6.61054 0.274904 -0.262)             (6.76289 0.0752959 -0.390396)             (7.06287 -0.729443 -0.509286)             (7.46128 -0.840965 -0.592921)             (7.66634 -0.708059 -0.556105)             (7.5613 -0.583398 -0.9957)             (7.75603 0.166553 -1.55934)             (7.79407 1.08096 -0.61781)             (7.48983 0.805293 -0.281759)             (7.73832 1.06301 -0.616966)             (7.9016 0.106256 -0.461368)             (8.2818 0.0247884 -0.499336)             (8.95207 -0.14449 -0.662469)             (9.28577 0.0118802 -0.515705)             (9.64669 0.59946 -0.340156)             (9.6434 0.661694 -0.210092)             (8.8693 0.586528 -0.105987)             (8.56305 0.771806 -0.370468)             (8.56305 0.771806 -0.370468)             (8.77631 0.000359628 -0.888465)             (8.67787 0.350384 -0.709449)             (8.59201 -0.142689 -0.357819)             (8.76289 -0.587626 -0.454201)             (8.62746 -1.13146 -0.282723)             (8.67243 -0.95879 -0.302946)             (8.64554 -0.78969 -0.103989)             (8.57305 -0.74651 -0.0482246)             (-1e+300 -1e+300 -1e+300)             (-1e+300 -1e+300 -1e+300)             (-1e+300 -1e+300 -1e+300)             (-1e+300 -1e+300 -1e+300)             (-1e+300 -1e+300 -1e+300)             (-1e+300 -1e+300 -1e+300)             (-1e+300 -1e+300 -1e+300)             (-1e+300 -1e+300 -1e+300)             (-1e+300 -1e+300 -1e+300)             (-1e+300 -1e+300 -1e+300)             (-1e+300 -1e+300 -1e+300)             (-1e+300 -1e+300 -1e+300)             (-1e+300 -1e+300 -1e+300)             (-1e+300 -1e+300 -1e+300)             (-1e+300 -1e+300 -1e+300)             (-1e+300 -1e+300 -1e+300)             (-1e+300 -1e+300 -1e+300)
        5.318             (3.21922 -0.749268 -0.220295)             (3.56072 -0.727244 0.62812)             (4.06656 -0.385387 0.0496344)             (4.1187 -0.587987 0.453075)             (4.66869 0.593376 0.445291)             (5.40101 0.0302213 0.168665)             (5.93302 0.371178 0.0415921)             (6.24896 0.535437 0.104943)             (6.65864 0.706535 0.15787)             (7.22847 0.388071 0.127788)             (6.6993 0.343961 -0.0417028)             (6.41299 0.0203785 -0.427207)             (6.94192 -0.246181 -0.371657)             (7.07908 -1.01331 -0.439703)             (7.59945 -0.66072 -0.615758)             (7.42925 -0.570976 -1.01458)             (7.08677 -0.458344 -1.67028)             (7.70684 1.06683 -1.78339)             (7.85349 1.39879 -0.946875)             (7.47993 0.642674 -0.779942)             (7.93827 0.492354 -1.00481)             (8.33303 0.0601757 -0.783598)             (8.56696 0.13958 -0.800778)             (9.01596 -0.272898 -0.653958)             (9.39029 -0.0375927 -0.427138)             (9.78983 0.712967 -0.268907)             (9.70661 0.732457 -0.398771)             (8.61396 0.421951 -0.229022)             (8.43558 0.686568 -0.414763)             (8.43558 0.686568 -0.414763)             (8.68932 -0.0500256 -0.850221)             (8.65276 0.264727 -0.742305)             (8.62815 -0.152863 -0.443527)             (8.8506 -0.54044 -0.536807)             (8.60801 -1.10605 -0.329967)             (8.67054 -0.976209 -0.340632)             (8.63435 -0.84314 -0.158231)             (8.57506 -0.787326 -0.109213)             (-1e+300 -1e+300 -1e+300)             (-1e+300 -1e+300 -1e+300)             (-1e+300 -1e+300 -1e+300)             (-1e+300 -1e+300 -1e+300)             (-1e+300 -1e+300 -1e+300)             (-1e+300 -1e+300 -1e+300)             (-1e+300 -1e+300 -1e+300)             (-1e+300 -1e+300 -1e+300)             (-1e+300 -1e+300 -1e+300)             (-1e+300 -1e+300 -1e+300)             (-1e+300 -1e+300 -1e+300)             (-1e+300 -1e+300 -1e+300)             (-1e+300 -1e+300 -1e+300)             (-1e+300 -1e+300 -1e+300)             (-1e+300 -1e+300 -1e+300)             (-1e+300 -1e+300 -1e+300)             (-1e+300 -1e+300 -1e+300)
         5.32             (3.24777 -0.589588 -0.196989)             (3.65948 -0.538974 0.541695)             (3.90108 -0.385116 0.0527663)             (4.6715 -0.333952 0.238292)             (4.75686 0.482963 0.374685)             (5.50193 0.0900736 0.161459)             (5.94229 0.473528 0.160154)             (6.19749 0.607836 0.118133)             (6.47004 0.409913 -0.138481)             (7.08371 -0.0340596 -0.220953)             (6.78217 -0.0628118 -0.267341)             (6.70263 -0.292021 -0.13877)             (6.98275 -0.466495 -0.129873)             (7.01666 -1.00482 -0.457665)             (7.17297 -0.686839 -0.794994)             (6.73907 -0.585765 -1.29064)             (6.6117 -0.0751803 -1.71498)             (8.13615 1.01708 -1.67939)             (8.19992 1.13511 -1.40306)             (7.85574 0.359198 -1.22095)             (8.32131 -0.08872 -1.13142)             (8.85628 0.0677748 -0.896824)             (8.79882 0.120683 -0.974837)             (9.1814 -0.329373 -0.544221)             (9.49055 0.030115 -0.34317)             (9.79204 0.92007 -0.32125)             (9.57853 0.818299 -0.64941)             (8.37853 0.255423 -0.350417)             (8.33704 0.601044 -0.458418)             (8.33704 0.601044 -0.458418)             (8.63865 -0.113478 -0.832548)             (8.66312 0.152236 -0.806901)             (8.7204 -0.153197 -0.566311)             (8.97816 -0.459732 -0.637145)             (8.62049 -1.02764 -0.372793)             (8.6966 -0.94701 -0.369489)             (8.63463 -0.867271 -0.22481)             (8.57654 -0.820087 -0.183615)             (-1e+300 -1e+300 -1e+300)             (-1e+300 -1e+300 -1e+300)             (-1e+300 -1e+300 -1e+300)             (-1e+300 -1e+300 -1e+300)             (-1e+300 -1e+300 -1e+300)             (-1e+300 -1e+300 -1e+300)             (-1e+300 -1e+300 -1e+300)             (-1e+300 -1e+300 -1e+300)             (-1e+300 -1e+300 -1e+300)             (-1e+300 -1e+300 -1e+300)             (-1e+300 -1e+300 -1e+300)             (-1e+300 -1e+300 -1e+300)             (-1e+300 -1e+300 -1e+300)             (-1e+300 -1e+300 -1e+300)             (-1e+300 -1e+300 -1e+300)             (-1e+300 -1e+300 -1e+300)             (-1e+300 -1e+300 -1e+300)
        5.322             (3.07081 -0.336279 -0.115116)             (3.46923 -0.335986 0.515402)             (3.69872 -0.339533 0.304955)             (5.20308 -0.0143434 0.041517)             (4.81431 0.258253 0.569804)             (5.37049 0.30514 0.125647)             (6.0445 0.336408 0.11887)             (6.11074 0.202465 -0.00438839)             (6.47786 -0.138361 -0.295299)             (7.01892 -0.0743844 -0.437499)             (7.36856 -0.341879 -0.307366)             (7.35929 -0.426775 0.0451087)             (6.93952 -0.608889 0.116451)             (6.87345 -0.839338 -0.272282)             (6.55151 -0.698278 -0.792156)             (6.28992 -0.465338 -1.09726)             (6.87057 -0.0487465 -1.16741)             (7.80121 1.34846 -1.29065)             (8.26718 1.10287 -1.37086)             (8.25439 0.295881 -1.11689)             (8.57061 -0.0772529 -0.790208)             (9.07734 0.163648 -0.865305)             (8.94126 -0.00110522 -0.989819)             (9.3468 -0.261072 -0.402639)             (9.5385 0.217186 -0.313201)             (9.66836 1.12652 -0.524545)             (9.36711 0.871511 -0.898376)             (8.20372 0.0795931 -0.455819)             (8.26948 0.516731 -0.504119)             (8.26948 0.516731 -0.504119)             (8.61932 -0.182242 -0.842162)             (8.70707 0.0353455 -0.900371)             (8.86805 -0.13434 -0.715405)             (9.1355 -0.354775 -0.747421)             (8.66182 -0.908102 -0.404685)             (8.74238 -0.879395 -0.383772)             (8.64424 -0.865706 -0.293096)             (8.58383 -0.845392 -0.259698)             (-1e+300 -1e+300 -1e+300)             (-1e+300 -1e+300 -1e+300)             (-1e+300 -1e+300 -1e+300)             (-1e+300 -1e+300 -1e+300)             (-1e+300 -1e+300 -1e+300)             (-1e+300 -1e+300 -1e+300)             (-1e+300 -1e+300 -1e+300)             (-1e+300 -1e+300 -1e+300)             (-1e+300 -1e+300 -1e+300)             (-1e+300 -1e+300 -1e+300)             (-1e+300 -1e+300 -1e+300)             (-1e+300 -1e+300 -1e+300)             (-1e+300 -1e+300 -1e+300)             (-1e+300 -1e+300 -1e+300)             (-1e+300 -1e+300 -1e+300)             (-1e+300 -1e+300 -1e+300)             (-1e+300 -1e+300 -1e+300)
        5.324             (2.73095 0.0719331 -0.0629248)             (3.09756 0.00304039 0.588479)             (3.42183 -0.203385 0.545541)             (4.99578 -0.0957034 0.364855)             (4.78188 0.0103734 0.796877)             (5.05495 0.405445 0.23217)             (6.03059 0.168435 0.218084)             (5.91953 0.112175 0.197631)             (6.49314 -0.265777 -0.183183)             (7.33598 0.0933149 -0.282961)             (7.65744 -0.110634 -0.344387)             (7.50044 -0.765844 -0.336772)             (6.95008 -0.818875 -0.0559319)             (6.50553 -0.800191 0.0153626)             (6.16496 -0.569141 -0.55647)             (6.29543 -0.367586 -0.641194)             (7.06918 -0.173675 -0.652002)             (7.58246 1.27777 -0.764173)             (7.90695 1.55545 -0.794318)             (8.23919 0.799117 -0.654074)             (8.54862 0.355994 -0.486061)             (8.9309 0.253175 -0.773988)             (9.01036 -0.00244894 -0.816764)             (9.40922 -0.0789554 -0.312004)             (9.52112 0.440673 -0.352897)             (9.48125 1.21982 -0.799753)             (9.18179 0.852192 -1.06775)             (8.09238 -0.0906504 -0.539604)             (8.21582 0.432321 -0.552679)             (8.21582 0.432321 -0.552679)             (8.60772 -0.250846 -0.877916)             (8.76487 -0.0676267 -1.01093)             (9.04775 -0.0947614 -0.874728)             (9.29202 -0.239577 -0.85611)             (8.71012 -0.767232 -0.420629)             (8.78076 -0.790842 -0.380193)             (8.64267 -0.849596 -0.351553)             (8.5842 -0.866539 -0.324694)             (-1e+300 -1e+300 -1e+300)             (-1e+300 -1e+300 -1e+300)             (-1e+300 -1e+300 -1e+300)             (-1e+300 -1e+300 -1e+300)             (-1e+300 -1e+300 -1e+300)             (-1e+300 -1e+300 -1e+300)             (-1e+300 -1e+300 -1e+300)             (-1e+300 -1e+300 -1e+300)             (-1e+300 -1e+300 -1e+300)             (-1e+300 -1e+300 -1e+300)             (-1e+300 -1e+300 -1e+300)             (-1e+300 -1e+300 -1e+300)             (-1e+300 -1e+300 -1e+300)             (-1e+300 -1e+300 -1e+300)             (-1e+300 -1e+300 -1e+300)             (-1e+300 -1e+300 -1e+300)             (-1e+300 -1e+300 -1e+300)