# Probe 0 (0 0 0.005)
# Probe 1 (0 0 0.0155)
# Probe 2 (0 0 0.02653)
# Probe 3 (0 0 0.0381)
# Probe 4 (0 0 0.05026)
# Probe 5 (0 0 0.06302)
# Probe 6 (0 0 0.07642)
# Probe 7 (0 0 0.08)
# Probe 8 (0 0 0.09049)
# Probe 9 (0 0 0.10527)
# Probe 10 (0 0 0.12078)
# Probe 11 (0 0 0.13707)
# Probe 12 (0 0 0.15417)
# Probe 13 (0 0 0.17213)
# Probe 14 (0 0 0.19099)
# Probe 15 (0 0 0.2)
# Probe 16 (0 0 0.21079)
# Probe 17 (0 0 0.23157)
# Probe 18 (0 0 0.2534)
# Probe 19 (0 0 0.27632)
# Probe 20 (0 0 0.30039)
# Probe 21 (0 0 0.32566)
# Probe 22 (0 0 0.35219)
# Probe 23 (0 0 0.38005)
# Probe 24 (0 0 0.4093)
# Probe 25 (0 0 0.44002)
# Probe 26 (0 0 0.47227)
# Probe 27 (0 0 0.50613)
# Probe 28 (0 0 0.54169)
# Probe 29 (0 0 0.57903)
# Probe 30 (0 0 0.61823)
# Probe 31 (0 0 0.65939)
# Probe 32 (0 0 0.70261)
# Probe 33 (0 0 0.74799)
# Probe 34 (0 0 0.79564)
# Probe 35 (0 0 0.84567)
# Probe 36 (0 0 0.8982)
# Probe 37 (0 0 0.95336)
# Probe 38 (0 0 1.01128)
# Probe 39 (0 0 1.0721)
# Probe 40 (0 0 1.13595)
# Probe 41 (0 0 1.203)
# Probe 42 (0 0 1.2734)
# Probe 43 (0 0 1.34732)
# Probe 44 (0 0 1.42493)
# Probe 45 (0 0 1.50643)
# Probe 46 (0 0 1.592)
# Probe 47 (0 0 1.68185)
# Probe 48 (0 0 1.77619)
# Probe 49 (0 0 1.87525)
# Probe 50 (0 0 1.97927)
# Probe 51 (0 0 2.08848)
# Probe 52 (0 0 2.20315)
# Probe 53 (0 0 2.32356)
# Probe 54 (0 0 2.44999)
#       Probe             0             1             2             3             4             5             6             7             8             9            10            11            12            13            14            15            16            17            18            19            20            21            22            23            24            25            26            27            28            29            30            31            32            33            34            35            36            37            38            39            40            41            42            43            44            45            46            47            48            49            50            51            52            53            54
#        Time
        0.002       -1e+300       -1e+300       -1e+300       -1e+300       -1e+300       -1e+300       -1e+300      -3.87923      -3.97817      -3.37585      -2.31591     -0.969606       0.51335       1.92914        2.8953       3.44621       3.93415       4.73238       5.44446       5.91425       6.29369       6.70317        6.7616       7.29091       7.29813        7.5002       7.42653       6.65824       7.41937       7.41937       7.77765       7.62456       7.66201       7.67068       7.67833       7.67923       7.67931       7.67908       -1e+300       -1e+300       -1e+300       -1e+300       -1e+300       -1e+300       -1e+300       -1e+300       -1e+300       -1e+300       -1e+300       -1e+300       -1e+300       -1e+300       -1e+300       -1e+300       -1e+300
        0.004       -1e+300       -1e+300       -1e+300       -1e+300       -1e+300       -1e+300       -1e+300      -3.43234      -3.55974      -3.10301      -2.24911      -1.07967      0.261023        1.6079       2.53768       3.07564       3.55582       4.35507       5.09007       5.55003        5.9212       6.33359       6.48852        6.8978        6.9676       7.16443       7.18378       7.03206       7.26631       7.26631       7.47944       7.34971       7.42915       7.43597       7.44867       7.45147       7.45299       7.45375       -1e+300       -1e+300       -1e+300       -1e+300       -1e+300       -1e+300       -1e+300       -1e+300       -1e+300       -1e+300       -1e+300       -1e+300       -1e+300       -1e+300       -1e+300       -1e+300       -1e+300
        0.006       -1e+300       -1e+300       -1e+300       -1e+300       -1e+300       -1e+300       -1e+300      -5.06285      -5.17447      -4.76619      -3.97459      -2.87004      -1.59535      -0.31959      0.560089       1.06746       1.52013       2.27629       2.95546       3.39353       3.74131       4.13379       4.29583        4.6513       4.73498       4.90974       4.95026       4.90844       5.08855       5.08855       5.20899       5.11122       5.21108       5.19276       5.20816       5.21118       5.21289       5.21377       -1e+300       -1e+300       -1e+300       -1e+300       -1e+300       -1e+300       -1e+300       -1e+300       -1e+300       -1e+300       -1e+300       -1e+300       -1e+300       -1e+300       -1e+300       -1e+300       -1e+300
        0.008       -1e+300       -1e+300       -1e+300       -1e+300       -1e+300       -1e+300       -1e+300      -9.11089      -9.31595      -9.37656      -9.16383      -8.48141      -7.45866      -6.27666      -5.43251      -4.93053      -4.47633      -3.70592      -3.02332      -2.56218      -2.19722      -1.78593      -1.59105      -1.28704      -1.18311      -1.01569     -0.957038     -0.897701       -0.7918       -0.7918     -0.735298     -0.789914     -0.733278       -0.7545     -0.747478     -0.749134     -0.751065     -0.752668       -1e+300       -1e+300       -1e+300       -1e+300       -1e+300       -1e+300       -1e+300       -1e+300       -1e+300       -1e+300       -1e+300       -1e+300       -1e+300       -1e+300       -1e+300       -1e+300       -1e+300
         0.01       -1e+300       -1e+300       -1e+300       -1e+300       -1e+300       -1e+300       -1e+300      -9.15995      -9.45256      -9.94255      -10.2299      -9.88154      -9.04485       -7.9296      -7.10738      -6.60892      -6.15446      -5.37724       -4.6893      -4.21877      -3.84484      -3.42259      -3.21819      -2.92215      -2.81092      -2.64116      -2.57823      -2.49598      -2.36679      -2.36679      -2.32746      -2.36936       -2.3178      -2.33926      -2.32686      -2.32779      -2.32913      -2.33033       -1e+300       -1e+300       -1e+300       -1e+300       -1e+300       -1e+300       -1e+300       -1e+300       -1e+300       -1e+300       -1e+300       -1e+300       -1e+300       -1e+300       -1e+300       -1e+300       -1e+300
        0.012       -1e+300       -1e+300       -1e+300       -1e+300       -1e+300       -1e+300       -1e+300       -2.2678      -2.57353      -3.21981      -3.65059      -3.31748      -2.43747      -1.28056     -0.441545     0.0652701      0.524431       1.30622       2.00765       2.47929       2.85492       3.28145       3.49135       3.80618       3.92554       4.10721       4.17864       4.28831       4.35081       4.35081       4.39894       4.40948       4.46474       4.46106       4.49445       4.50163       4.50647       4.50945       -1e+300       -1e+300       -1e+300       -1e+300       -1e+300       -1e+300       -1e+300       -1e+300       -1e+300       -1e+300       -1e+300       -1e+300       -1e+300       -1e+300       -1e+300       -1e+300       -1e+300
        0.014       -1e+300       -1e+300       -1e+300       -1e+300       -1e+300       -1e+300       -1e+300    -0.0290382    -0.0359835     -0.469659     -0.775871     -0.368224      0.556847       1.73572       2.58079        3.0899       3.54989       4.33252       5.03961       5.51223       5.88898       6.31739       6.52957       6.85564       6.97809       7.16306       7.23717         7.353        7.3967        7.3967       7.44403       7.46854       7.51916       7.52344        7.5601       7.56924       7.57557       7.57955       -1e+300       -1e+300       -1e+300       -1e+300       -1e+300       -1e+300       -1e+300       -1e+300       -1e+300       -1e+300       -1e+300       -1e+300       -1e+300       -1e+300       -1e+300       -1e+300       -1e+300
        0.016       -1e+300       -1e+300       -1e+300       -1e+300       -1e+300       -1e+300       -1e+300      -3.77113      -3.48913      -5.33445      -6.54913      -6.45355      -5.58784      -4.35988      -3.48671      -2.96151       -2.4872      -1.68295     -0.971493     -0.487377     -0.103792      0.329299      0.544829      0.849775      0.971688       1.15226       1.22379       1.33376       1.40055       1.40055       1.44059       1.46541       1.50225       1.50562       1.52945       1.53459       1.53781       1.53966       -1e+300       -1e+300       -1e+300       -1e+300       -1e+300       -1e+300       -1e+300       -1e+300       -1e+300       -1e+300       -1e+300       -1e+300       -1e+300       -1e+300       -1e+300       -1e+300       -1e+300
        0.018       -1e+300       -1e+300       -1e+300       -1e+300       -1e+300       -1e+300       -1e+300      -4.63751      -6.19097      -8.86857      -10.7187      -10.5539      -9.47733       -8.0436      -7.07406       -6.5027       -5.9925      -5.14019      -4.40272      -3.90345      -3.50985      -3.06915      -2.85098      -2.55714      -2.43606      -2.26005      -2.19047      -2.08597      -2.00537      -2.00537      -1.97501       -1.9567      -1.92526      -1.92994      -1.91565      -1.91422      -1.91396      -1.91411       -1e+300       -1e+300       -1e+300       -1e+300       -1e+300       -1e+300       -1e+300       -1e+300       -1e+300       -1e+300       -1e+300       -1e+300       -1e+300       -1e+300       -1e+300       -1e+300       -1e+300
         0.02       -1e+300       -1e+300       -1e+300       -1e+300       -1e+300       -1e+300       -1e+300       -7.4483      -8.55053      -12.5487      -13.7164      -12.5988      -10.9367       -9.1877      -8.09744      -7.47516      -6.92902      -6.03158      -5.26776      -4.75205      -4.34758      -3.89653      -3.67261      -3.37009      -3.24542      -3.06337      -2.99192      -2.88428      -2.79155      -2.79155      -2.75493      -2.73631      -2.70701      -2.70352      -2.68647      -2.68323      -2.68163      -2.68087       -1e+300       -1e+300       -1e+300       -1e+300       -1e+300       -1e+300       -1e+300       -1e+300       -1e+300       -1e+300       -1e+300       -1e+300       -1e+300       -1e+300       -1e+300       -1e+300       -1e+300
        0.022       -1e+300       -1e+300       -1e+300       -1e+300       -1e+300       -1e+300       -1e+300      -7.51241      -10.6675      -13.2917      -12.7433      -10.3291      -7.95978      -5.85244      -4.62246      -3.93993       -3.3499      -2.39404      -1.58421      -1.04521     -0.623294     -0.152367     0.0824286      0.410748      0.543968      0.741839       0.82061      0.941453       1.02703       1.02703       1.07616       1.11463        1.1534        1.1679       1.20062       1.21003       1.21627       1.22015       -1e+300       -1e+300       -1e+300       -1e+300       -1e+300       -1e+300       -1e+300       -1e+300       -1e+300       -1e+300       -1e+300       -1e+300       -1e+300       -1e+300       -1e+300       -1e+300       -1e+300
        0.024       -1e+300       -1e+300       -1e+300       -1e+300       -1e+300       -1e+300       -1e+300      -12.0379      -17.8879      -18.3644      -14.9917      -10.2097      -6.72784       -4.1558       -2.7661      -2.02157      -1.39011     -0.386503      0.453461       1.00361       1.43245       1.90993       2.14782       2.48629       2.62157       2.82325       2.90381       3.02758       3.10567       3.10567       3.15767       3.20203       3.24303       3.26071       3.29764       3.30884       3.31636        3.3211       -1e+300       -1e+300       -1e+300       -1e+300       -1e+300       -1e+300       -1e+300       -1e+300       -1e+300       -1e+300       -1e+300       -1e+300       -1e+300       -1e+300       -1e+300       -1e+300       -1e+300
        0.026       -1e+300       -1e+300       -1e+300       -1e+300       -1e+300       -1e+300       -1e+300      -19.8054      -28.1318      -34.1561      -25.9887      -15.3721      -10.6271      -7.58799      -6.02368      -5.20874      -4.52776      -3.46312      -2.59185      -2.02352      -1.58406      -1.09791     -0.856974     -0.525036     -0.389989     -0.190432     -0.111715    0.00781842     0.0979511     0.0979511      0.145115      0.182391       0.21748      0.231094      0.259598       0.26773      0.272813        0.2759       -1e+300       -1e+300       -1e+300       -1e+300       -1e+300       -1e+300       -1e+300       -1e+300       -1e+300       -1e+300       -1e+300       -1e+300       -1e+300       -1e+300       -1e+300       -1e+300       -1e+300
        0.028       -1e+300       -1e+300       -1e+300       -1e+300       -1e+300       -1e+300       -1e+300      -24.1559      -37.7927      -50.7131      -39.6296      -21.3751      -15.2663      -11.6264      -9.83886      -8.93146       -8.1853      -7.03831      -6.12179      -5.52668      -5.07107       -4.5707       -4.3241      -3.99591       -3.8597      -3.66003      -3.58231      -3.46536      -3.35779      -3.35779       -3.3141      -3.28567      -3.25572       -3.2455      -3.22441      -3.21901      -3.21609      -3.21447       -1e+300       -1e+300       -1e+300       -1e+300       -1e+300       -1e+300       -1e+300       -1e+300       -1e+300       -1e+300       -1e+300       -1e+300       -1e+300       -1e+300       -1e+300       -1e+300       -1e+300
         0.03       -1e+300       -1e+300       -1e+300       -1e+300       -1e+300       -1e+300       -1e+300      -24.0674      -38.8585      -52.4888      -34.4238      -24.2451      -17.0583      -12.8262      -10.8117      -9.81112      -8.99929      -7.77125      -6.80536      -6.18569      -5.71452      -5.20001      -4.94736      -4.61384      -4.47522      -4.27216      -4.19376      -4.07583      -3.96317      -3.96317      -3.91835      -3.88918      -3.86034      -3.84924      -3.82902      -3.82385      -3.82111      -3.81962       -1e+300       -1e+300       -1e+300       -1e+300       -1e+300       -1e+300       -1e+300       -1e+300       -1e+300       -1e+300       -1e+300       -1e+300       -1e+300       -1e+300       -1e+300       -1e+300       -1e+300
        0.032       -1e+300       -1e+300       -1e+300       -1e+300       -1e+300       -1e+300       -1e+300      -24.7882      -34.9778      -49.8276      -42.9921      -27.8913      -19.3729      -14.5999      -12.3606      -11.2665      -10.3884      -9.07627      -8.05789      -7.41111      -6.92159      -6.38925      -6.12841      -5.78681      -5.64412      -5.43486      -5.35445      -5.23319      -5.10907      -5.10907      -5.06189      -5.03389      -5.00463      -4.99184      -4.97065      -4.96509      -4.96205      -4.96036       -1e+300       -1e+300       -1e+300       -1e+300       -1e+300       -1e+300       -1e+300       -1e+300       -1e+300       -1e+300       -1e+300       -1e+300       -1e+300       -1e+300       -1e+300       -1e+300       -1e+300
        0.034       -1e+300       -1e+300       -1e+300       -1e+300       -1e+300       -1e+300       -1e+300      -20.8736      -25.7196      -43.8601      -37.2079      -27.4561      -17.3856      -11.9382      -9.47428      -8.29476      -7.36017      -5.98058      -4.91291      -4.24635      -3.74307      -3.19666      -2.92913        -2.572      -2.42526      -2.20921      -2.12614      -2.00035      -1.89395      -1.89395      -1.84303      -1.79953      -1.76789      -1.75221      -1.72741       -1.7205      -1.71644      -1.71409       -1e+300       -1e+300       -1e+300       -1e+300       -1e+300       -1e+300       -1e+300       -1e+300       -1e+300       -1e+300       -1e+300       -1e+300       -1e+300       -1e+300       -1e+300       -1e+300       -1e+300
        0.036       -1e+300       -1e+300       -1e+300       -1e+300       -1e+300       -1e+300       -1e+300      -17.3461      -22.1257      -38.4541       -46.725      -32.1567      -17.6257      -11.5046      -8.83713      -7.58602      -6.60445      -5.17188      -4.07076      -3.39443      -2.88556       -2.3354      -2.06732      -1.71226      -1.56714       -1.3558       -1.2752      -1.15523      -1.06356      -1.06356      -1.02006     -0.972486     -0.946713     -0.937267     -0.922073     -0.918834     -0.917716     -0.917352       -1e+300       -1e+300       -1e+300       -1e+300       -1e+300       -1e+300       -1e+300       -1e+300       -1e+300       -1e+300       -1e+300       -1e+300       -1e+300       -1e+300       -1e+300       -1e+300       -1e+300
        0.038       -1e+300       -1e+300       -1e+300       -1e+300       -1e+300       -1e+300       -1e+300      -17.0606      -19.9518      -39.1857      -45.8583      -37.3824      -20.9709      -14.1289      -11.2789       -9.9688      -8.95253      -7.48658      -6.36874      -5.68791      -5.17731      -4.62778      -4.36073      -4.01584        -3.873      -3.66645      -3.58874      -3.47435      -3.37576      -3.37576       -3.3366       -3.2909      -3.27025      -3.26428      -3.25634      -3.25585      -3.25678      -3.25781       -1e+300       -1e+300       -1e+300       -1e+300       -1e+300       -1e+300       -1e+300       -1e+300       -1e+300       -1e+300       -1e+300       -1e+300       -1e+300       -1e+300       -1e+300       -1e+300       -1e+300
         0.04       -1e+300       -1e+300       -1e+300       -1e+300       -1e+300       -1e+300       -1e+300      -13.6775      -15.5259       -34.565      -40.4753      -40.2577      -19.6783      -12.3328      -9.30511      -7.94118      -6.89323      -5.39354      -4.25248      -3.56534      -3.04993       -2.4955      -2.22566      -1.87101      -1.72605      -1.51485      -1.43538      -1.31717      -1.22825      -1.22825      -1.18344      -1.12639      -1.10235      -1.09154      -1.07754      -1.07474      -1.07377      -1.07352       -1e+300       -1e+300       -1e+300       -1e+300       -1e+300       -1e+300       -1e+300       -1e+300       -1e+300       -1e+300       -1e+300       -1e+300       -1e+300       -1e+300       -1e+300       -1e+300       -1e+300
        0.042       -1e+300       -1e+300       -1e+300       -1e+300       -1e+300       -1e+300       -1e+300      -8.00533      -12.6872      -25.6013      -33.8725      -26.4871      -13.5705      -8.29427      -5.55364      -4.25518      -3.23828      -1.76041     -0.611936     0.0761194      0.594867       1.15586       1.43023       1.80553       1.95475       2.17426        2.2578       2.38384       2.46129       2.46129        2.5129       2.57354       2.60386       2.62045       2.64401       2.65043       2.65417       2.65628       -1e+300       -1e+300       -1e+300       -1e+300       -1e+300       -1e+300       -1e+300       -1e+300       -1e+300       -1e+300       -1e+300       -1e+300       -1e+300       -1e+300       -1e+300       -1e+300       -1e+300
        0.044       -1e+300       -1e+300       -1e+300       -1e+300       -1e+300       -1e+300       -1e+300      -12.2966      -10.9933       -24.019      -26.3882      -13.5318      -9.06543      -7.91751      -6.01126      -4.90655      -3.98193      -2.57622      -1.44855     -0.767627      -0.25206       0.30747      0.581613      0.955254       1.10409       1.32212       1.40491       1.52899       1.61072       1.61072       1.65867       1.71322       1.74124       1.75525       1.77499       1.77995       1.78249       1.78381       -1e+300       -1e+300       -1e+300       -1e+300       -1e+300       -1e+300       -1e+300       -1e+300       -1e+300       -1e+300       -1e+300       -1e+300       -1e+300       -1e+300       -1e+300       -1e+300       -1e+300
        0.046       -1e+300       -1e+300       -1e+300       -1e+300       -1e+300       -1e+300       -1e+300      -18.8262      -20.9726      -24.3915      -21.6017      -9.55041      -9.67284      -9.41255      -7.68166      -6.65229      -5.77204      -4.40294      -3.28668      -2.60769      -2.09284      -1.53358      -1.25969     -0.888666     -0.740533     -0.524042      -0.44248     -0.320441     -0.229073     -0.229073     -0.182519     -0.139314     -0.113757      -0.10118    -0.0848946    -0.0812801    -0.0797008    -0.0790515       -1e+300       -1e+300       -1e+300       -1e+300       -1e+300       -1e+300       -1e+300       -1e+300       -1e+300       -1e+300       -1e+300       -1e+300       -1e+300       -1e+300       -1e+300       -1e+300       -1e+300
        0.048       -1e+300       -1e+300       -1e+300       -1e+300       -1e+300       -1e+300       -1e+300      -20.0904      -20.3542      -20.6813       -21.098      -9.88982      -8.85683      -10.2733      -9.13186      -8.24661      -7.42985       -6.0968      -4.97947      -4.29663      -3.77793      -3.21316      -2.93648       -2.5676      -2.41779      -2.19858      -2.11589      -1.99155      -1.88847      -1.88847      -1.84015       -1.7942      -1.76724      -1.75323      -1.73466      -1.73017      -1.72792      -1.72681       -1e+300       -1e+300       -1e+300       -1e+300       -1e+300       -1e+300       -1e+300       -1e+300       -1e+300       -1e+300       -1e+300       -1e+300       -1e+300       -1e+300       -1e+300       -1e+300       -1e+300
         0.05       -1e+300       -1e+300       -1e+300       -1e+300       -1e+300       -1e+300       -1e+300       -15.569      -14.8196      -16.6143      -18.0568      -3.22485      -3.00085      -6.48294      -5.95957      -5.28299      -4.58369      -3.35037      -2.25297      -1.57455      -1.05527     -0.486505     -0.207391      0.170766      0.322134       0.54426      0.627851      0.754022      0.839955      0.839955      0.890858      0.948507      0.976573      0.992402       1.01287       1.01802       1.02085       1.02233       -1e+300       -1e+300       -1e+300       -1e+300       -1e+300       -1e+300       -1e+300       -1e+300       -1e+300       -1e+300       -1e+300       -1e+300       -1e+300       -1e+300       -1e+300       -1e+300       -1e+300
        0.052       -1e+300       -1e+300       -1e+300       -1e+300       -1e+300       -1e+300       -1e+300      -18.3011      -18.6682      -19.8504      -21.1697      -9.40412      -8.95951      -10.3152      -9.84532      -9.26376      -8.63698      -7.48198      -6.42024      -5.75045        -5.235      -4.66861      -4.39093       -4.0301      -3.88136      -3.66564      -3.58546      -3.46651      -3.36503      -3.36503      -3.32241      -3.26795      -3.24671      -3.23746      -3.22767       -3.2266      -3.22694      -3.22761       -1e+300       -1e+300       -1e+300       -1e+300       -1e+300       -1e+300       -1e+300       -1e+300       -1e+300       -1e+300       -1e+300       -1e+300       -1e+300       -1e+300       -1e+300       -1e+300       -1e+300
        0.054       -1e+300       -1e+300       -1e+300       -1e+300       -1e+300       -1e+300       -1e+300      -14.0119      -15.0774      -19.4748      -18.6974      -10.1981       -12.833      -10.8304      -10.2088      -9.65181      -9.06385      -7.96948      -6.94305      -6.28498      -5.77531      -5.21274      -4.93597      -4.57535      -4.42671      -4.21054      -4.13028       -4.0107      -3.90415      -3.90415      -3.85977      -3.80805      -3.78623      -3.77586      -3.76495       -3.7635       -3.7635      -3.76394       -1e+300       -1e+300       -1e+300       -1e+300       -1e+300       -1e+300       -1e+300       -1e+300       -1e+300       -1e+300       -1e+300       -1e+300       -1e+300       -1e+300       -1e+300       -1e+300       -1e+300
        0.056       -1e+300       -1e+300       -1e+300       -1e+300       -1e+300       -1e+300       -1e+300       0.14586       -3.8939      -9.07775      -3.45237       2.41312       1.81383     -0.349748    -0.0856999      0.365897      0.891556       1.92307       2.93957       3.59523       4.10807       4.68106       4.96569       5.37509         5.532       5.76495       5.85362       5.98989       6.06002       6.06002       6.11983       6.17566        6.2116       6.23507       6.26778       6.27756       6.28395       6.28784       -1e+300       -1e+300       -1e+300       -1e+300       -1e+300       -1e+300       -1e+300       -1e+300       -1e+300       -1e+300       -1e+300       -1e+300       -1e+300       -1e+300       -1e+300       -1e+300       -1e+300
        0.058       -1e+300       -1e+300       -1e+300       -1e+300       -1e+300       -1e+300       -1e+300       11.9226        5.6764      0.479089       9.74457       9.27825       8.52849        6.3012       6.21887        6.5329       6.97025       7.91117       8.89922       9.54704       10.0594       10.6379       10.9276       11.3682       11.5308       11.7755       11.8699       12.0178       12.0674       12.0674       12.1383       12.1971       12.2424       12.2749       12.3221       12.3373       12.3479       12.3547       -1e+300       -1e+300       -1e+300       -1e+300       -1e+300       -1e+300       -1e+300       -1e+300       -1e+300       -1e+300       -1e+300       -1e+300       -1e+300       -1e+300       -1e+300       -1e+300       -1e+300
         0.06       -1e+300       -1e+300       -1e+300       -1e+300       -1e+300       -1e+300       -1e+300       4.56977      -14.3614      -0.89152       3.30125      0.201178      0.133025      -2.72827      -3.08656      -2.90182      -2.55959      -1.73092     -0.818449      -0.19496      0.303084      0.867916       1.15076       1.54873       1.70515       1.93748       2.02533       2.16082        2.2525        2.2525        2.3113       2.36725       2.40191       2.42501        2.4562       2.46537       2.47138       2.47501       -1e+300       -1e+300       -1e+300       -1e+300       -1e+300       -1e+300       -1e+300       -1e+300       -1e+300       -1e+300       -1e+300       -1e+300       -1e+300       -1e+300       -1e+300       -1e+300       -1e+300
        0.062       -1e+300       -1e+300       -1e+300       -1e+300       -1e+300       -1e+300       -1e+300      -2.48355      -20.5366       3.51801       2.99507      0.945892       0.37079      -3.27561      -3.89285      -3.81049        -3.543      -2.80961      -1.95517       -1.3533     -0.866776     -0.310383    -0.0303682      0.362599      0.517725      0.747772      0.834499      0.968125       1.06541       1.06541       1.12233       1.17307       1.20632       1.22827       1.25748       1.26592       1.27137       1.27464       -1e+300       -1e+300       -1e+300       -1e+300       -1e+300       -1e+300       -1e+300       -1e+300       -1e+300       -1e+300       -1e+300       -1e+300       -1e+300       -1e+300       -1e+300       -1e+300       -1e+300
        0.064       -1e+300       -1e+300       -1e+300       -1e+300       -1e+300       -1e+300       -1e+300       10.2831      -9.86967       6.02982        6.0119       5.17323       3.37174      0.876434      0.282922      0.339607      0.575452       1.25466       2.07524       2.66202       3.14107       3.69312       3.97283       4.38307       4.53973       4.77341       4.86207        4.9999       5.08067       5.08067       5.14156       5.18397       5.22049       5.24548       5.27956        5.2898        5.2966       5.30079       -1e+300       -1e+300       -1e+300       -1e+300       -1e+300       -1e+300       -1e+300       -1e+300       -1e+300       -1e+300       -1e+300       -1e+300       -1e+300       -1e+300       -1e+300       -1e+300       -1e+300
        0.066       -1e+300       -1e+300       -1e+300       -1e+300       -1e+300       -1e+300       -1e+300      0.111301      -8.56031      -3.79761      -4.43507      -4.18552      -5.68515      -6.81151      -7.10262      -6.99312      -6.74706      -6.08726      -5.31102      -4.74364      -4.28001      -3.74648      -3.47702      -3.10714      -2.95896      -2.74157      -2.66111      -2.53904      -2.43253      -2.43253      -2.38531        -2.351      -2.32734      -2.31381      -2.29931      -2.29658      -2.29553      -2.29523       -1e+300       -1e+300       -1e+300       -1e+300       -1e+300       -1e+300       -1e+300       -1e+300       -1e+300       -1e+300       -1e+300       -1e+300       -1e+300       -1e+300       -1e+300       -1e+300       -1e+300
        0.068       -1e+300       -1e+300       -1e+300       -1e+300       -1e+300       -1e+300       -1e+300      -2.93611        -11.34      -10.5191      -7.71577      -6.00528      -6.46783      -6.62321      -6.52142      -6.29848      -6.00055      -5.31759      -4.55413       -3.9976      -3.54286      -3.01851      -2.75299      -2.38898      -2.24215      -2.02632      -1.94619      -1.82401      -1.72271      -1.72271      -1.67461      -1.62976       -1.6043      -1.58897      -1.57129      -1.56729      -1.56528      -1.56431       -1e+300       -1e+300       -1e+300       -1e+300       -1e+300       -1e+300       -1e+300       -1e+300       -1e+300       -1e+300       -1e+300       -1e+300       -1e+300       -1e+300       -1e+300       -1e+300       -1e+300
         0.07       -1e+300       -1e+300       -1e+300       -1e+300       -1e+300       -1e+300       -1e+300       -4.7694      -10.9624      -15.3248      -6.56247      -3.32408       -2.5884      -1.99486        -1.536      -1.17984     -0.804041     -0.056812      0.724379         1.281        1.7339       2.25497       2.51918       2.90288       3.05001       3.26759       3.34887       3.47408       3.55082       3.55082        3.6029        3.6369        3.6656       3.68418       3.70711        3.7131       3.71661       3.71864       -1e+300       -1e+300       -1e+300       -1e+300       -1e+300       -1e+300       -1e+300       -1e+300       -1e+300       -1e+300       -1e+300       -1e+300       -1e+300       -1e+300       -1e+300       -1e+300       -1e+300