# Probe 0 (0 0 0.005)
# Probe 1 (0 0 0.0155)
# Probe 2 (0 0 0.02653)
# Probe 3 (0 0 0.0381)
# Probe 4 (0 0 0.05026)
# Probe 5 (0 0 0.06302)
# Probe 6 (0 0 0.07642)
# Probe 7 (0 0 0.08)
# Probe 8 (0 0 0.09049)
# Probe 9 (0 0 0.10527)
# Probe 10 (0 0 0.12078)
# Probe 11 (0 0 0.13707)
# Probe 12 (0 0 0.15417)
# Probe 13 (0 0 0.17213)
# Probe 14 (0 0 0.19099)
# Probe 15 (0 0 0.2)
# Probe 16 (0 0 0.21079)
# Probe 17 (0 0 0.23157)
# Probe 18 (0 0 0.2534)
# Probe 19 (0 0 0.27632)
# Probe 20 (0 0 0.30039)
# Probe 21 (0 0 0.32566)
# Probe 22 (0 0 0.35219)
# Probe 23 (0 0 0.38005)
# Probe 24 (0 0 0.4093)
# Probe 25 (0 0 0.44002)
# Probe 26 (0 0 0.47227)
# Probe 27 (0 0 0.50613)
# Probe 28 (0 0 0.54169)
# Probe 29 (0 0 0.57903)
# Probe 30 (0 0 0.61823)
# Probe 31 (0 0 0.65939)
# Probe 32 (0 0 0.70261)
# Probe 33 (0 0 0.74799)
# Probe 34 (0 0 0.79564)
# Probe 35 (0 0 0.84567)
# Probe 36 (0 0 0.8982)
# Probe 37 (0 0 0.95336)
# Probe 38 (0 0 1.01128)
# Probe 39 (0 0 1.0721)
# Probe 40 (0 0 1.13595)
# Probe 41 (0 0 1.203)
# Probe 42 (0 0 1.2734)
# Probe 43 (0 0 1.34732)
# Probe 44 (0 0 1.42493)
# Probe 45 (0 0 1.50643)
# Probe 46 (0 0 1.592)
# Probe 47 (0 0 1.68185)
# Probe 48 (0 0 1.77619)
# Probe 49 (0 0 1.87525)
# Probe 50 (0 0 1.97927)
# Probe 51 (0 0 2.08848)
# Probe 52 (0 0 2.20315)
# Probe 53 (0 0 2.32356)
# Probe 54 (0 0 2.44999)
#       Probe             0             1             2             3             4             5             6             7             8             9            10            11            12            13            14            15            16            17            18            19            20            21            22            23            24            25            26            27            28            29            30            31            32            33            34            35            36            37            38            39            40            41            42            43            44            45            46            47            48            49            50            51            52            53            54
#        Time
        0.002             (-1e+300 -1e+300 -1e+300)             (-1e+300 -1e+300 -1e+300)             (-1e+300 -1e+300 -1e+300)             (-1e+300 -1e+300 -1e+300)             (-1e+300 -1e+300 -1e+300)             (-1e+300 -1e+300 -1e+300)             (-1e+300 -1e+300 -1e+300)             (0.455864 -0.000298019 0.00024517)             (8.82952 -0.0308826 -0.0162864)             (8.77044 -0.0307832 -0.0286323)             (8.66765 -0.0306541 -0.0331611)             (8.54057 -0.0304568 -0.0427593)             (8.37958 -0.0302988 -0.0382309)             (8.21776 -0.029924 -0.0487689)             (8.10378 -0.0297881 -0.0536311)             (8.03636 -0.0297092 -0.0535348)             (7.9757 -0.0296365 -0.0536827)             (7.87444 -0.029503 -0.059869)             (7.78311 -0.0296857 -0.0351122)             (7.72048 -0.0295935 -0.0474155)             (7.67335 -0.0295433 -0.056274)             (7.62026 -0.0295178 -0.119546)             (7.59303 -0.029583 -0.5873)             (7.56322 -0.0298888 -0.0707163)             (7.55038 -0.0299721 -0.0617408)             (7.5335 -0.0301486 -0.0593229)             (7.52779 -0.0302523 -0.0752934)             (7.52188 -0.0303652 -0.0375218)             (7.51909 -0.0299031 -0.0576527)             (7.51909 -0.0299031 -0.0576527)             (7.51998 -0.0300765 -0.0734512)             (7.51924 -0.0300818 -0.0613853)             (7.52238 -0.0302637 -0.0583538)             (7.52592 -0.0304322 -0.0525359)             (7.53286 -0.0307128 -0.0387011)             (7.53577 -0.0308197 -0.0307767)             (7.53808 -0.0309016 -0.0223498)             (7.53968 -0.030957 -0.013558)             (-1e+300 -1e+300 -1e+300)             (-1e+300 -1e+300 -1e+300)             (-1e+300 -1e+300 -1e+300)             (-1e+300 -1e+300 -1e+300)             (-1e+300 -1e+300 -1e+300)             (-1e+300 -1e+300 -1e+300)             (-1e+300 -1e+300 -1e+300)             (-1e+300 -1e+300 -1e+300)             (-1e+300 -1e+300 -1e+300)             (-1e+300 -1e+300 -1e+300)             (-1e+300 -1e+300 -1e+300)             (-1e+300 -1e+300 -1e+300)             (-1e+300 -1e+300 -1e+300)             (-1e+300 -1e+300 -1e+300)             (-1e+300 -1e+300 -1e+300)             (-1e+300 -1e+300 -1e+300)             (-1e+300 -1e+300 -1e+300)
        0.004             (-1e+300 -1e+300 -1e+300)             (-1e+300 -1e+300 -1e+300)             (-1e+300 -1e+300 -1e+300)             (-1e+300 -1e+300 -1e+300)             (-1e+300 -1e+300 -1e+300)             (-1e+300 -1e+300 -1e+300)             (-1e+300 -1e+300 -1e+300)             (0.328501 -0.00136164 0.000112118)             (8.67913 -0.0330562 -0.0288314)             (8.64655 -0.0329949 -0.0555076)             (8.5918 -0.0328624 -0.065481)             (8.48811 -0.0327417 -0.0684168)             (8.3561 -0.0325689 -0.0598599)             (8.21175 -0.0322411 -0.0556142)             (8.1063 -0.0321046 -0.0577431)             (8.04294 -0.0320057 -0.0558391)             (7.98513 -0.0319144 -0.0547889)             (7.8868 -0.0317387 -0.0564647)             (7.79684 -0.0319645 -0.0393028)             (7.73544 -0.0318293 -0.0464927)             (7.68829 -0.0317477 -0.0554115)             (7.63383 -0.0316764 -0.0877405)             (7.60713 -0.0316945 -0.298208)             (7.57695 -0.0319776 -0.0723143)             (7.56409 -0.0320578 -0.0608574)             (7.54707 -0.0322396 -0.0606948)             (7.54126 -0.0323412 -0.0768588)             (7.53507 -0.0325087 -0.0472543)             (7.53242 -0.0319491 -0.0584802)             (7.53242 -0.0319491 -0.0584802)             (7.53327 -0.0321178 -0.0777773)             (7.53251 -0.0321044 -0.0611777)             (7.53571 -0.0322761 -0.0611377)             (7.53939 -0.0324397 -0.0542342)             (7.54657 -0.032711 -0.0399979)             (7.54958 -0.0328141 -0.0318121)             (7.55197 -0.0328929 -0.0231038)             (7.55363 -0.0329462 -0.0140162)             (-1e+300 -1e+300 -1e+300)             (-1e+300 -1e+300 -1e+300)             (-1e+300 -1e+300 -1e+300)             (-1e+300 -1e+300 -1e+300)             (-1e+300 -1e+300 -1e+300)             (-1e+300 -1e+300 -1e+300)             (-1e+300 -1e+300 -1e+300)             (-1e+300 -1e+300 -1e+300)             (-1e+300 -1e+300 -1e+300)             (-1e+300 -1e+300 -1e+300)             (-1e+300 -1e+300 -1e+300)             (-1e+300 -1e+300 -1e+300)             (-1e+300 -1e+300 -1e+300)             (-1e+300 -1e+300 -1e+300)             (-1e+300 -1e+300 -1e+300)             (-1e+300 -1e+300 -1e+300)             (-1e+300 -1e+300 -1e+300)
        0.006             (-1e+300 -1e+300 -1e+300)             (-1e+300 -1e+300 -1e+300)             (-1e+300 -1e+300 -1e+300)             (-1e+300 -1e+300 -1e+300)             (-1e+300 -1e+300 -1e+300)             (-1e+300 -1e+300 -1e+300)             (-1e+300 -1e+300 -1e+300)             (0.263679 -0.00119801 5.65731e-05)             (8.51211 -0.0350001 -0.051101)             (8.51151 -0.0349798 -0.100123)             (8.50069 -0.0349396 -0.114324)             (8.43624 -0.0348356 -0.107699)             (8.33275 -0.0346855 -0.0855132)             (8.20549 -0.0344428 -0.066523)             (8.10803 -0.0342653 -0.0636934)             (8.04797 -0.0341374 -0.0590718)             (7.99249 -0.0340151 -0.0563097)             (7.89618 -0.0337755 -0.0547097)             (7.80744 -0.0340525 -0.0400968)             (7.74708 -0.0338572 -0.0458536)             (7.69976 -0.0337279 -0.0540023)             (7.64434 -0.0335913 -0.0707895)             (7.61834 -0.0335802 -0.170577)             (7.58687 -0.033756 -0.0723601)             (7.57415 -0.0338339 -0.0614969)             (7.55683 -0.0340216 -0.0631488)             (7.551 -0.0341222 -0.0779139)             (7.54476 -0.0342937 -0.0564315)             (7.54217 -0.0336656 -0.0624535)             (7.54217 -0.0336656 -0.0624535)             (7.54309 -0.0338128 -0.0799969)             (7.54236 -0.0337891 -0.062142)             (7.54559 -0.0339412 -0.0643218)             (7.54953 -0.0340928 -0.0557528)             (7.557 -0.0343389 -0.0413752)             (7.56012 -0.0344323 -0.0329129)             (7.56261 -0.0345036 -0.0239057)             (7.56433 -0.0345518 -0.0145036)             (-1e+300 -1e+300 -1e+300)             (-1e+300 -1e+300 -1e+300)             (-1e+300 -1e+300 -1e+300)             (-1e+300 -1e+300 -1e+300)             (-1e+300 -1e+300 -1e+300)             (-1e+300 -1e+300 -1e+300)             (-1e+300 -1e+300 -1e+300)             (-1e+300 -1e+300 -1e+300)             (-1e+300 -1e+300 -1e+300)             (-1e+300 -1e+300 -1e+300)             (-1e+300 -1e+300 -1e+300)             (-1e+300 -1e+300 -1e+300)             (-1e+300 -1e+300 -1e+300)             (-1e+300 -1e+300 -1e+300)             (-1e+300 -1e+300 -1e+300)             (-1e+300 -1e+300 -1e+300)             (-1e+300 -1e+300 -1e+300)
        0.008             (-1e+300 -1e+300 -1e+300)             (-1e+300 -1e+300 -1e+300)             (-1e+300 -1e+300 -1e+300)             (-1e+300 -1e+300 -1e+300)             (-1e+300 -1e+300 -1e+300)             (-1e+300 -1e+300 -1e+300)             (-1e+300 -1e+300 -1e+300)             (0.224497 -0.00126721 3.31104e-05)             (8.29409 -0.0381097 -0.0976532)             (8.35045 -0.0380591 -0.188126)             (8.40722 -0.0380017 -0.202401)             (8.39155 -0.0378098 -0.168914)             (8.31503 -0.0376283 -0.121634)             (8.20094 -0.0374903 -0.0826716)             (8.1078 -0.0372364 -0.0713096)             (8.04968 -0.037068 -0.0630642)             (7.99541 -0.0369049 -0.0580791)             (7.90006 -0.0365848 -0.0534761)             (7.81139 -0.0369363 -0.03856)             (7.75151 -0.0366726 -0.0444781)             (7.7038 -0.0364914 -0.0522281)             (7.64764 -0.0362943 -0.0626802)             (7.62112 -0.0362662 -0.111527)             (7.58935 -0.0363286 -0.0720236)             (7.57657 -0.0364211 -0.0623029)             (7.55889 -0.0366389 -0.0654506)             (7.55304 -0.0367505 -0.0789802)             (7.54671 -0.0369471 -0.0637833)             (7.54423 -0.0362578 -0.0659479)             (7.54423 -0.0362578 -0.0659479)             (7.54517 -0.0364058 -0.0813214)             (7.54432 -0.0363969 -0.0636393)             (7.54759 -0.0365513 -0.0666606)             (7.55176 -0.0367077 -0.0568288)             (7.55943 -0.0369569 -0.042549)             (7.56265 -0.0370519 -0.0338511)             (7.56521 -0.0371243 -0.0245886)             (7.56698 -0.0371732 -0.0149185)             (-1e+300 -1e+300 -1e+300)             (-1e+300 -1e+300 -1e+300)             (-1e+300 -1e+300 -1e+300)             (-1e+300 -1e+300 -1e+300)             (-1e+300 -1e+300 -1e+300)             (-1e+300 -1e+300 -1e+300)             (-1e+300 -1e+300 -1e+300)             (-1e+300 -1e+300 -1e+300)             (-1e+300 -1e+300 -1e+300)             (-1e+300 -1e+300 -1e+300)             (-1e+300 -1e+300 -1e+300)             (-1e+300 -1e+300 -1e+300)             (-1e+300 -1e+300 -1e+300)             (-1e+300 -1e+300 -1e+300)             (-1e+300 -1e+300 -1e+300)             (-1e+300 -1e+300 -1e+300)             (-1e+300 -1e+300 -1e+300)
         0.01             (-1e+300 -1e+300 -1e+300)             (-1e+300 -1e+300 -1e+300)             (-1e+300 -1e+300 -1e+300)             (-1e+300 -1e+300 -1e+300)             (-1e+300 -1e+300 -1e+300)             (-1e+300 -1e+300 -1e+300)             (-1e+300 -1e+300 -1e+300)             (0.203724 -0.00120893 2.44155e-05)             (8.08172 -0.0417642 -0.143213)             (8.19487 -0.0412578 -0.272749)             (8.31403 -0.041143 -0.285114)             (8.34196 -0.0410016 -0.227749)             (8.29125 -0.0407935 -0.157165)             (8.19034 -0.0407216 -0.102135)             (8.10205 -0.0403768 -0.0806479)             (8.04634 -0.0401562 -0.069367)             (7.99365 -0.0399472 -0.0620953)             (7.90009 -0.0395408 -0.0543495)             (7.81223 -0.0399559 -0.0382679)             (7.75278 -0.0396315 -0.0441355)             (7.70489 -0.0394054 -0.0515802)             (7.64846 -0.0391616 -0.059768)             (7.62182 -0.039123 -0.0844517)             (7.58939 -0.0390981 -0.0723365)             (7.57653 -0.0392082 -0.0637321)             (7.55862 -0.0394586 -0.0679665)             (7.55279 -0.0395842 -0.0807075)             (7.54642 -0.0398086 -0.0696388)             (7.54416 -0.0390795 -0.0695916)             (7.54416 -0.0390795 -0.0695916)             (7.54514 -0.0392326 -0.0828388)             (7.5442 -0.0392342 -0.0656059)             (7.54754 -0.0393987 -0.0688222)             (7.55193 -0.0395644 -0.0581579)             (7.55983 -0.0398265 -0.0438169)             (7.56316 -0.0399269 -0.0348677)             (7.56581 -0.0400033 -0.0253286)             (7.56764 -0.0400548 -0.0153681)             (-1e+300 -1e+300 -1e+300)             (-1e+300 -1e+300 -1e+300)             (-1e+300 -1e+300 -1e+300)             (-1e+300 -1e+300 -1e+300)             (-1e+300 -1e+300 -1e+300)             (-1e+300 -1e+300 -1e+300)             (-1e+300 -1e+300 -1e+300)             (-1e+300 -1e+300 -1e+300)             (-1e+300 -1e+300 -1e+300)             (-1e+300 -1e+300 -1e+300)             (-1e+300 -1e+300 -1e+300)             (-1e+300 -1e+300 -1e+300)             (-1e+300 -1e+300 -1e+300)             (-1e+300 -1e+300 -1e+300)             (-1e+300 -1e+300 -1e+300)             (-1e+300 -1e+300 -1e+300)             (-1e+300 -1e+300 -1e+300)
        0.012             (-1e+300 -1e+300 -1e+300)             (-1e+300 -1e+300 -1e+300)             (-1e+300 -1e+300 -1e+300)             (-1e+300 -1e+300 -1e+300)             (-1e+300 -1e+300 -1e+300)             (-1e+300 -1e+300 -1e+300)             (-1e+300 -1e+300 -1e+300)             (0.193769 -0.000906619 2.88311e-05)             (7.91703 -0.0435938 -0.194338)             (8.06418 -0.0434094 -0.340899)             (8.23175 -0.0367805 -0.357232)             (8.29558 -0.0432234 -0.289027)             (8.27417 -0.0429269 -0.19903)             (8.18583 -0.0430118 -0.12842)             (8.10525 -0.0426186 -0.0948659)             (8.05176 -0.0423621 -0.0796565)             (8.00067 -0.0421185 -0.0691581)             (7.90881 -0.0416365 -0.0573308)             (7.82183 -0.0421052 -0.0394144)             (7.76226 -0.0417179 -0.0447231)             (7.71404 -0.0414397 -0.0518298)             (7.65745 -0.0411382 -0.0595533)             (7.63051 -0.0410745 -0.0738368)             (7.5976 -0.0409273 -0.0734362)             (7.5846 -0.041043 -0.0659061)             (7.56657 -0.0412961 -0.0709817)             (7.5608 -0.041421 -0.083234)             (7.55448 -0.0416412 -0.0750546)             (7.55255 -0.0408451 -0.0739744)             (7.55255 -0.0408451 -0.0739744)             (7.55365 -0.0409774 -0.0851027)             (7.55282 -0.0409592 -0.0683974)             (7.55635 -0.0411066 -0.0715075)             (7.56104 -0.0412555 -0.0602106)             (7.56933 -0.0414884 -0.0455283)             (7.57283 -0.0415775 -0.0362513)             (7.57561 -0.0416452 -0.0263362)             (7.57753 -0.0416907 -0.0159804)             (-1e+300 -1e+300 -1e+300)             (-1e+300 -1e+300 -1e+300)             (-1e+300 -1e+300 -1e+300)             (-1e+300 -1e+300 -1e+300)             (-1e+300 -1e+300 -1e+300)             (-1e+300 -1e+300 -1e+300)             (-1e+300 -1e+300 -1e+300)             (-1e+300 -1e+300 -1e+300)             (-1e+300 -1e+300 -1e+300)             (-1e+300 -1e+300 -1e+300)             (-1e+300 -1e+300 -1e+300)             (-1e+300 -1e+300 -1e+300)             (-1e+300 -1e+300 -1e+300)             (-1e+300 -1e+300 -1e+300)             (-1e+300 -1e+300 -1e+300)             (-1e+300 -1e+300 -1e+300)             (-1e+300 -1e+300 -1e+300)
        0.014             (-1e+300 -1e+300 -1e+300)             (-1e+300 -1e+300 -1e+300)             (-1e+300 -1e+300 -1e+300)             (-1e+300 -1e+300 -1e+300)             (-1e+300 -1e+300 -1e+300)             (-1e+300 -1e+300 -1e+300)             (-1e+300 -1e+300 -1e+300)             (0.169641 -0.000266614 2.23392e-05)             (7.49199 -0.0505571 -0.219265)             (7.84517 -0.0455617 -0.543169)             (8.16267 -0.0284049 -0.537803)             (8.29094 -0.045715 -0.418966)             (8.29926 -0.0456922 -0.267135)             (8.21109 -0.0458961 -0.160794)             (8.12931 -0.0452734 -0.11126)             (8.0741 -0.0448888 -0.0898341)             (8.0215 -0.0445397 -0.0750758)             (7.92701 -0.0438856 -0.0586789)             (7.83845 -0.044407 -0.0390661)             (7.77733 -0.043902 -0.0440895)             (7.72797 -0.0435358 -0.0512428)             (7.67075 -0.0431461 -0.0595494)             (7.64325 -0.0430452 -0.0695905)             (7.60974 -0.0427135 -0.0744466)             (7.59647 -0.0428365 -0.0680115)             (7.57833 -0.0430876 -0.0739121)             (7.57263 -0.043209 -0.0858549)             (7.56641 -0.0434182 -0.0800743)             (7.56482 -0.0425467 -0.0778161)             (7.56482 -0.0425467 -0.0778161)             (7.56608 -0.0426506 -0.0877205)             (7.56542 -0.0426197 -0.071482)             (7.56918 -0.0427402 -0.0743504)             (7.57419 -0.0428626 -0.0625839)             (7.58294 -0.0430521 -0.0473931)             (7.58663 -0.0431243 -0.0377705)             (7.58956 -0.0431789 -0.0274426)             (7.59158 -0.0432155 -0.0166528)             (-1e+300 -1e+300 -1e+300)             (-1e+300 -1e+300 -1e+300)             (-1e+300 -1e+300 -1e+300)             (-1e+300 -1e+300 -1e+300)             (-1e+300 -1e+300 -1e+300)             (-1e+300 -1e+300 -1e+300)             (-1e+300 -1e+300 -1e+300)             (-1e+300 -1e+300 -1e+300)             (-1e+300 -1e+300 -1e+300)             (-1e+300 -1e+300 -1e+300)             (-1e+300 -1e+300 -1e+300)             (-1e+300 -1e+300 -1e+300)             (-1e+300 -1e+300 -1e+300)             (-1e+300 -1e+300 -1e+300)             (-1e+300 -1e+300 -1e+300)             (-1e+300 -1e+300 -1e+300)             (-1e+300 -1e+300 -1e+300)
        0.016             (-1e+300 -1e+300 -1e+300)             (-1e+300 -1e+300 -1e+300)             (-1e+300 -1e+300 -1e+300)             (-1e+300 -1e+300 -1e+300)             (-1e+300 -1e+300 -1e+300)             (-1e+300 -1e+300 -1e+300)             (-1e+300 -1e+300 -1e+300)             (0.195022 -0.0314031 9.99069e-05)             (7.10192 -0.0132797 -0.293335)             (7.62483 -0.0369251 -0.848635)             (8.12764 -0.0388097 -0.799127)             (8.33705 -0.0470462 -0.555626)             (8.34511 -0.0473555 -0.330942)             (8.24255 -0.0482725 -0.188346)             (8.1528 -0.0475751 -0.124193)             (8.0938 -0.0471358 -0.0970501)             (8.03799 -0.0467299 -0.0788119)             (7.93901 -0.045961 -0.0586748)             (7.84785 -0.0465597 -0.0379565)             (7.78492 -0.0459542 -0.0429734)             (7.7343 -0.0455108 -0.0503238)             (7.6764 -0.0450486 -0.0594468)             (7.64837 -0.04492 -0.0668985)             (7.61424 -0.0444177 -0.0752721)             (7.60069 -0.0445571 -0.0698259)             (7.58245 -0.0448245 -0.0764519)             (7.57684 -0.0449522 -0.0881757)             (7.57069 -0.0451699 -0.0842939)             (7.56945 -0.0442481 -0.081147)             (7.56945 -0.0442481 -0.081147)             (7.57086 -0.0443437 -0.0901438)             (7.57035 -0.0443168 -0.0743472)             (7.57431 -0.0444281 -0.0769338)             (7.57963 -0.0445404 -0.0648176)             (7.58882 -0.0447143 -0.0491061)             (7.59268 -0.0447802 -0.0391788)             (7.59574 -0.0448299 -0.028468)             (7.59785 -0.044863 -0.0172759)             (-1e+300 -1e+300 -1e+300)             (-1e+300 -1e+300 -1e+300)             (-1e+300 -1e+300 -1e+300)             (-1e+300 -1e+300 -1e+300)             (-1e+300 -1e+300 -1e+300)             (-1e+300 -1e+300 -1e+300)             (-1e+300 -1e+300 -1e+300)             (-1e+300 -1e+300 -1e+300)             (-1e+300 -1e+300 -1e+300)             (-1e+300 -1e+300 -1e+300)             (-1e+300 -1e+300 -1e+300)             (-1e+300 -1e+300 -1e+300)             (-1e+300 -1e+300 -1e+300)             (-1e+300 -1e+300 -1e+300)             (-1e+300 -1e+300 -1e+300)             (-1e+300 -1e+300 -1e+300)             (-1e+300 -1e+300 -1e+300)
        0.018             (-1e+300 -1e+300 -1e+300)             (-1e+300 -1e+300 -1e+300)             (-1e+300 -1e+300 -1e+300)             (-1e+300 -1e+300 -1e+300)             (-1e+300 -1e+300 -1e+300)             (-1e+300 -1e+300 -1e+300)             (-1e+300 -1e+300 -1e+300)             (0.306611 -0.0424826 4.14334e-05)             (6.4819 0.110394 -0.808059)             (7.46027 -0.0139079 -1.37177)             (8.20216 -0.0372143 -1.08346)             (8.41614 -0.0508451 -0.686062)             (8.39938 -0.0516925 -0.385395)             (8.27355 -0.0520959 -0.212386)             (8.17391 -0.0507373 -0.135156)             (8.1101 -0.049982 -0.103233)             (8.05052 -0.0493382 -0.0820597)             (7.94668 -0.048254 -0.0586463)             (7.85275 -0.0488036 -0.0369956)             (7.78801 -0.0480722 -0.0419714)             (7.73614 -0.0475418 -0.0495023)             (7.67757 -0.0470068 -0.0593153)             (7.64902 -0.046848 -0.0653332)             (7.61437 -0.0461995 -0.0760373)             (7.60054 -0.046354 -0.0714096)             (7.58219 -0.0466401 -0.0786798)             (7.57665 -0.046776 -0.0902599)             (7.57058 -0.0470059 -0.0878624)             (7.56966 -0.0460401 -0.0840949)             (7.56966 -0.0460401 -0.0840949)             (7.5712 -0.0461333 -0.0923801)             (7.5708 -0.0461042 -0.07698)             (7.57495 -0.0462112 -0.0792723)             (7.58055 -0.0463184 -0.0668941)             (7.59013 -0.0464852 -0.0506711)             (7.59415 -0.0465481 -0.0404717)             (7.59733 -0.0465954 -0.0294085)             (7.59953 -0.0466269 -0.0178473)             (-1e+300 -1e+300 -1e+300)             (-1e+300 -1e+300 -1e+300)             (-1e+300 -1e+300 -1e+300)             (-1e+300 -1e+300 -1e+300)             (-1e+300 -1e+300 -1e+300)             (-1e+300 -1e+300 -1e+300)             (-1e+300 -1e+300 -1e+300)             (-1e+300 -1e+300 -1e+300)             (-1e+300 -1e+300 -1e+300)             (-1e+300 -1e+300 -1e+300)             (-1e+300 -1e+300 -1e+300)             (-1e+300 -1e+300 -1e+300)             (-1e+300 -1e+300 -1e+300)             (-1e+300 -1e+300 -1e+300)             (-1e+300 -1e+300 -1e+300)             (-1e+300 -1e+300 -1e+300)             (-1e+300 -1e+300 -1e+300)
         0.02             (-1e+300 -1e+300 -1e+300)             (-1e+300 -1e+300 -1e+300)             (-1e+300 -1e+300 -1e+300)             (-1e+300 -1e+300 -1e+300)             (-1e+300 -1e+300 -1e+300)             (-1e+300 -1e+300 -1e+300)             (-1e+300 -1e+300 -1e+300)             (0.187463 0.0165266 0.00065961)             (5.315 0.00935272 -1.68476)             (7.53169 -0.0541432 -2.08101)             (8.37741 -0.0602987 -1.38132)             (8.5292 -0.0589481 -0.821627)             (8.46731 -0.0549042 -0.444402)             (8.31207 -0.0544979 -0.240032)             (8.19944 -0.0529294 -0.14784)             (8.12898 -0.0521502 -0.110738)             (8.06462 -0.0515133 -0.0862673)             (7.95464 -0.0504555 -0.0594275)             (7.85723 -0.0511542 -0.0366356)             (7.79029 -0.0504104 -0.0414942)             (7.73702 -0.0498617 -0.0491717)             (7.67762 -0.0493162 -0.0595587)             (7.64852 -0.0491485 -0.0650002)             (7.61337 -0.0484013 -0.0772268)             (7.5993 -0.0485755 -0.073296)             (7.58087 -0.0488899 -0.0811847)             (7.57543 -0.0490375 -0.0926777)             (7.56948 -0.0492844 -0.0914485)             (7.56894 -0.0482682 -0.087292)             (7.56894 -0.0482682 -0.087292)             (7.57066 -0.0483619 -0.0949386)             (7.57037 -0.0483299 -0.0798833)             (7.57474 -0.0484339 -0.0818452)             (7.58065 -0.0485372 -0.0692232)             (7.59068 -0.0486978 -0.0524048)             (7.59487 -0.0487576 -0.0418995)             (7.5982 -0.0488024 -0.0304461)             (7.60049 -0.0488321 -0.0184775)             (-1e+300 -1e+300 -1e+300)             (-1e+300 -1e+300 -1e+300)             (-1e+300 -1e+300 -1e+300)             (-1e+300 -1e+300 -1e+300)             (-1e+300 -1e+300 -1e+300)             (-1e+300 -1e+300 -1e+300)             (-1e+300 -1e+300 -1e+300)             (-1e+300 -1e+300 -1e+300)             (-1e+300 -1e+300 -1e+300)             (-1e+300 -1e+300 -1e+300)             (-1e+300 -1e+300 -1e+300)             (-1e+300 -1e+300 -1e+300)             (-1e+300 -1e+300 -1e+300)             (-1e+300 -1e+300 -1e+300)             (-1e+300 -1e+300 -1e+300)             (-1e+300 -1e+300 -1e+300)             (-1e+300 -1e+300 -1e+300)
        0.022             (-1e+300 -1e+300 -1e+300)             (-1e+300 -1e+300 -1e+300)             (-1e+300 -1e+300 -1e+300)             (-1e+300 -1e+300 -1e+300)             (-1e+300 -1e+300 -1e+300)             (-1e+300 -1e+300 -1e+300)             (-1e+300 -1e+300 -1e+300)             (-0.0171692 -0.0377079 0.00056936)             (3.27117 -0.200286 -1.24867)             (7.96424 -0.0530058 -2.58725)             (8.62631 -0.060489 -1.69166)             (8.69526 -0.0546562 -0.972127)             (8.56953 -0.0542459 -0.501877)             (8.36914 -0.0558209 -0.259968)             (8.23728 -0.0546227 -0.156498)             (8.15763 -0.0539654 -0.115545)             (8.08699 -0.0534033 -0.0886444)             (7.96906 -0.0524144 -0.0594911)             (7.8671 -0.053269 -0.0361008)             (7.79754 -0.0525085 -0.0411322)             (7.74267 -0.0519403 -0.0491783)             (7.68221 -0.051378 -0.0602239)             (7.65253 -0.0512017 -0.0662545)             (7.61689 -0.0503529 -0.0790775)             (7.60263 -0.050545 -0.075802)             (7.5842 -0.0508878 -0.0843481)             (7.57888 -0.051047 -0.095827)             (7.57314 -0.05131 -0.0955506)             (7.57312 -0.0502495 -0.0911507)             (7.57312 -0.0502495 -0.0911507)             (7.5751 -0.0503429 -0.0982202)             (7.57502 -0.0503005 -0.083431)             (7.57971 -0.0503993 -0.0850153)             (7.586 -0.0504966 -0.0721247)             (7.59661 -0.0506465 -0.0545526)             (7.60103 -0.0507013 -0.0436514)             (7.60452 -0.0507422 -0.0317187)             (7.60694 -0.0507691 -0.0192502)             (-1e+300 -1e+300 -1e+300)             (-1e+300 -1e+300 -1e+300)             (-1e+300 -1e+300 -1e+300)             (-1e+300 -1e+300 -1e+300)             (-1e+300 -1e+300 -1e+300)             (-1e+300 -1e+300 -1e+300)             (-1e+300 -1e+300 -1e+300)             (-1e+300 -1e+300 -1e+300)             (-1e+300 -1e+300 -1e+300)             (-1e+300 -1e+300 -1e+300)             (-1e+300 -1e+300 -1e+300)             (-1e+300 -1e+300 -1e+300)             (-1e+300 -1e+300 -1e+300)             (-1e+300 -1e+300 -1e+300)             (-1e+300 -1e+300 -1e+300)             (-1e+300 -1e+300 -1e+300)             (-1e+300 -1e+300 -1e+300)
        0.024             (-1e+300 -1e+300 -1e+300)             (-1e+300 -1e+300 -1e+300)             (-1e+300 -1e+300 -1e+300)             (-1e+300 -1e+300 -1e+300)             (-1e+300 -1e+300 -1e+300)             (-1e+300 -1e+300 -1e+300)             (-1e+300 -1e+300 -1e+300)             (-0.188553 -0.0193985 0.000172562)             (1.95836 -1.45395 -1.32569)             (7.57308 0.212288 -3.6373)             (8.8794 0.0568925 -2.2194)             (8.92816 -0.0272081 -1.16375)             (8.70984 -0.0499218 -0.558153)             (8.4426 -0.055386 -0.269654)             (8.28203 -0.0553522 -0.160736)             (8.19286 -0.0550803 -0.117613)             (8.1151 -0.0547598 -0.0890879)             (7.98779 -0.0540328 -0.0585287)             (7.88025 -0.0551639 -0.0351426)             (7.80767 -0.0544326 -0.0405906)             (7.75104 -0.0538779 -0.0492167)             (7.68933 -0.0533271 -0.0610129)             (7.65902 -0.0531541 -0.0679675)             (7.62287 -0.0522228 -0.0812287)             (7.60847 -0.052438 -0.0785916)             (7.59006 -0.0528207 -0.0878193)             (7.58487 -0.052996 -0.0993285)             (7.5794 -0.0532843 -0.0998311)             (7.57996 -0.0521916 -0.095346)             (7.57996 -0.0521916 -0.095346)             (7.58226 -0.0522931 -0.101854)             (7.58244 -0.0522499 -0.0872859)             (7.58749 -0.0523511 -0.0884679)             (7.59419 -0.0524503 -0.0753027)             (7.60545 -0.052602 -0.0569005)             (7.61011 -0.0526567 -0.0455581)             (7.6138 -0.0526973 -0.0331034)             (7.61635 -0.0527238 -0.020091)             (-1e+300 -1e+300 -1e+300)             (-1e+300 -1e+300 -1e+300)             (-1e+300 -1e+300 -1e+300)             (-1e+300 -1e+300 -1e+300)             (-1e+300 -1e+300 -1e+300)             (-1e+300 -1e+300 -1e+300)             (-1e+300 -1e+300 -1e+300)             (-1e+300 -1e+300 -1e+300)             (-1e+300 -1e+300 -1e+300)             (-1e+300 -1e+300 -1e+300)             (-1e+300 -1e+300 -1e+300)             (-1e+300 -1e+300 -1e+300)             (-1e+300 -1e+300 -1e+300)             (-1e+300 -1e+300 -1e+300)             (-1e+300 -1e+300 -1e+300)             (-1e+300 -1e+300 -1e+300)             (-1e+300 -1e+300 -1e+300)