# Probe 0 (-0.091 0 0.008)
# Probe 1 (-0.091 0 0.016)
# Probe 2 (-0.091 0 0.024)
# Probe 3 (-0.091 0 0.032)
# Probe 4 (-0.091 0 0.04)
# Probe 5 (-0.091 0 0.048)
# Probe 6 (-0.091 0 0.056)
# Probe 7 (-0.091 0 0.064)
# Probe 8 (-0.091 0 0.072)
# Probe 9 (-0.091 0 0.08)
# Probe 10 (-0.0894 0 0.080016)
# Probe 11 (-0.0878 0 0.080016)
# Probe 12 (-0.0854 0 0.080016)
# Probe 13 (-0.083 0 0.080016)
# Probe 14 (-0.079 0 0.080016)
# Probe 15 (-0.075 0 0.080016)
# Probe 16 (-0.067 0 0.080016)
# Probe 17 (-0.059 0 0.080016)
# Probe 18 (-0.051 0 0.080016)
# Probe 19 (-0.043 0 0.080016)
# Probe 20 (-0.035 0 0.080016)
# Probe 21 (-0.027 0 0.080016)
# Probe 22 (-0.019 0 0.080016)
# Probe 23 (-0.011 0 0.080016)
# Probe 24 (-0.003 0 0.080016)
# Probe 25 (0.005 0 0.080016)
# Probe 26 (0.013 0 0.080016)
# Probe 27 (0.021 0 0.080016)
# Probe 28 (0.029 0 0.080016)
# Probe 29 (0.037 0 0.080016)
# Probe 30 (0.045 0 0.080016)
# Probe 31 (0.053 0 0.080016)
# Probe 32 (0.061 0 0.080016)
# Probe 33 (0.069 0 0.080016)
# Probe 34 (0.077 0 0.080016)
# Probe 35 (0.085 0 0.080016)
# Probe 36 (0.091 0 0.080016)
# Probe 37 (0.091 0 0.072016)
# Probe 38 (0.091 0 0.064016)
# Probe 39 (0.091 0 0.056016)
# Probe 40 (0.091 0 0.048016)
# Probe 41 (0.091 0 0.040016)
# Probe 42 (0.091 0 0.032016)
# Probe 43 (0.091 0 0.024016)
# Probe 44 (0.091 0 0.016016)
# Probe 45 (0.091 0 0.008016)
#       Probe             0             1             2             3             4             5             6             7             8             9            10            11            12            13            14            15            16            17            18            19            20            21            22            23            24            25            26            27            28            29            30            31            32            33            34            35            36            37            38            39            40            41            42            43            44            45
#        Time
        5.302       3.96271        3.6159       3.52903        3.3415       3.54109        3.9679       4.45539       4.31988       2.20495      -11.9292      -22.2134      -22.2528      -22.7582      -22.9946      -23.0319      -24.8611      -22.8475      -20.5253      -21.0581      -21.3846      -21.3537      -20.7217      -19.1322      -18.1268      -16.3457      -15.1931      -15.4399      -13.2941       -12.378      -13.5741      -12.6231      -11.4996      -9.96899      -9.58865       -9.7061      -11.9365      -8.40615      -7.87712      -8.37724       -8.7194      -8.80922      -8.97748      -9.03096      -8.79677      -8.23287      -7.87682
        5.304       3.58717       3.19432       3.17689       2.88848        3.1816       3.72494       4.15416       4.40131       2.65179      -11.5066       -23.565      -21.6276      -21.2669      -22.3489      -23.3744      -24.6138      -24.0072      -21.2738      -20.6993       -21.199      -20.3355      -20.2987      -19.4231      -18.1077      -16.5749      -14.3055      -15.0108      -13.5406      -12.4787      -14.3924      -12.1312      -11.7595       -10.294      -8.16791      -8.55433      -11.8761      -10.0817      -8.94033       -8.8886      -9.04426      -9.12037      -9.30022      -9.31627      -8.90975      -8.26007      -8.05843
        5.306       1.49019       1.21238       1.11119      0.840757       1.05933       1.61597       2.00103       2.36098      0.809462      -11.1198      -23.5613      -24.7915      -23.2974      -22.7012      -23.3916      -24.1007      -25.3144      -24.7788      -21.9233      -22.2469      -21.2001      -21.0888       -20.158      -20.2527      -17.9451        -15.35      -15.7693      -15.0881      -13.7315      -15.7329      -13.6745      -13.3314      -12.6357       -9.9849      -8.40638      -9.74045      -11.2094       -11.439      -11.0178      -10.9208      -10.9009      -11.0127      -10.9224      -10.2684      -9.57969      -9.56475
        5.308       3.92283       3.75624       3.58607       3.35092       3.45816       3.79784       4.18442       4.59138        3.1927      -5.75625      -19.8018      -19.2359      -20.2778      -21.0349      -19.2358      -18.2633      -21.7474      -24.0397      -20.6538      -18.9913      -17.9468        -17.89      -16.5795      -17.3692         -15.8      -14.6647      -12.6338      -12.9376      -11.3781      -11.6839      -12.1352      -11.7596      -10.4747      -8.59196      -7.62857      -5.63832      -5.20266      -8.98754      -8.93754      -8.86133      -8.84043      -8.91464      -8.69705      -7.84266      -7.18431       -7.3393
         5.31       6.36143       6.26586       6.08903        5.7845       6.03684       6.13535       6.52521       6.98764       5.77247      -2.80228      -17.7263      -18.2505       -17.281      -16.3548      -17.5505      -15.7873      -15.0987      -18.4191      -18.6541      -18.2587      -16.2882      -15.4836      -14.2549      -13.8752      -13.8091      -12.7199      -11.0344      -10.5991       -9.2019      -9.00328      -9.72375      -9.56196        -8.935      -7.11132      -6.14722      -5.41083      -4.45441      -6.19933      -6.42579       -6.5388      -6.62413      -6.71308      -6.33466      -5.49896      -4.83359      -5.11855
        5.312       4.40531       4.34307         4.131       3.84515        4.2496       4.36333       4.68425       5.39835       4.44129      -4.69722      -18.8179      -18.2032       -19.326      -20.0649      -19.3419      -18.2177      -17.4754      -17.3562       -18.119      -18.9609      -18.7545      -16.5385      -15.5173      -14.5277        -14.67      -12.9136      -14.5122      -12.7843      -11.4926      -11.0286      -11.4184      -10.4674      -10.8352      -8.72205      -8.06665      -7.50939      -7.04187      -8.03941      -8.10134      -8.15609      -8.22628      -8.26086      -7.64233      -7.04596      -6.26118      -6.65011
        5.314       3.79123       3.82732       3.51026       3.28747       3.81751       3.82452       4.17495        5.3389       3.53855      -6.96199      -20.7037      -20.3171      -19.6997       -19.739      -20.7542      -19.8631       -18.953      -17.0334      -17.5533      -18.1476      -18.7353      -16.9015      -15.7851       -14.636      -14.5062      -15.3381      -15.2984      -14.2117       -13.278      -11.8055      -12.5744      -12.0583      -10.3849      -10.2333      -8.18477       -7.1811      -6.44851      -8.76479      -8.80936      -8.78255      -8.80091      -8.72934      -7.93083      -7.53312      -6.64078      -7.15156
        5.316      0.477747        0.6071      0.168281      0.195084      0.641745      0.580346       1.20818       1.97421    -0.0296951      -10.5395      -22.2454      -22.4397      -23.5772      -23.4655      -22.9033      -24.0186      -22.7127      -20.9159      -21.6364      -21.3029      -20.7139      -19.7864      -19.0338      -17.5193       -15.559      -16.8761       -18.054      -17.5283      -16.7736      -14.8654      -15.6187      -15.4422      -13.9072      -11.7221      -11.6088       -10.091      -8.61751      -11.2525      -11.4145      -11.4144      -11.4376      -11.2169      -10.5486      -10.0825       -9.1764      -9.76094
        5.318      -2.90538       -2.7385      -3.28171      -2.82641      -2.77074      -2.62569       -1.8785      -1.41542      -2.94835       -13.325      -27.2374      -26.2379      -25.7056      -26.3313      -27.1684      -26.9026      -26.7967      -25.5141      -25.9756      -25.1731      -23.3678       -22.498      -22.4225      -20.7609      -16.5212      -19.1331      -20.3425      -20.4311      -19.8682      -18.3913      -18.4354      -18.2776      -17.5244       -15.505       -13.913      -13.6111      -12.1316      -13.7596      -13.9577      -14.0364      -14.1247      -13.7367      -13.3937      -12.7626      -11.9064      -12.4902
         5.32       6.20553         6.185       5.71441       6.00018       6.16866       6.42632       6.88369        7.3203        5.9106       -5.1577       -18.338      -18.0992      -19.0887      -18.6561      -18.0868      -18.6121      -19.0417      -17.3717      -16.7049      -17.2289      -15.6315      -13.7968      -14.1676      -13.1968      -10.9609       -11.708      -11.3981      -12.1665      -11.7177      -11.1021      -10.7213      -10.8709      -9.80676      -9.05308      -7.84246      -5.73025      -5.13285      -6.15924      -6.33689      -6.51273      -6.69382      -6.29685      -6.15059       -5.5217       -4.7907      -5.15674
        5.322       14.8851       14.4659       14.2109       14.0972       14.5554       14.5889       14.9776       15.3178        13.717       2.09336      -12.4678      -12.0518       -11.588      -11.9821        -12.21      -10.9316      -11.5832      -10.3355      -9.34624       -8.8696      -8.38794      -6.59445      -6.51992      -5.85257       -4.1294      -4.17786       -3.5097      -4.16057      -4.14327      -4.05102      -3.86718       -4.2715      -2.98319      -2.40556      -1.77275     -0.250382      0.799398      0.660166      0.681307      0.483935       0.30478      0.478659       0.66077       1.13244        1.7144       1.75297
        5.324       9.07655       8.10546       8.15269       7.89171       8.32455       8.18984         8.584       8.84897       6.89116      -5.86684      -17.5295      -17.5007       -18.009      -18.2019      -18.6649      -18.8437      -17.5674      -17.0049      -15.8073      -14.2836      -14.3693      -12.7719      -12.4188       -10.876      -9.85243      -9.46431       -9.5376      -9.28519      -9.70918       -9.6604      -9.73457      -10.0908      -8.88187      -7.67164      -7.55461      -6.37441      -6.01368      -4.79173      -4.43888      -4.53462      -4.56035      -4.59476      -4.31231      -4.06514      -3.53768      -2.99356
        5.326        7.1826       5.82026       6.11253       5.83488       5.99282       6.03803       6.09483       5.74592       3.20614      -10.0659      -20.3874      -20.1065      -19.6149      -19.5728      -20.3945      -20.4684      -19.8272      -20.6487      -18.1827      -16.5455      -15.7494      -15.0934      -14.9232      -12.7484      -11.5937      -10.9604      -11.2752      -11.0598      -12.1315      -11.9097      -11.9264       -11.994      -10.9742      -9.94301       -9.2921      -8.51572      -7.81693      -7.02027      -6.46651      -6.44909      -6.35468      -6.41175      -6.09784      -6.08608        -5.476      -4.54761
        5.328       4.14629       2.98293       3.11724       2.96826       2.81037       3.02599       2.91204       1.77708      -1.00059      -15.3587      -24.2685       -24.358      -24.5837      -24.7761      -23.5081      -23.0375      -23.4101      -23.6153      -21.4915       -19.327       -18.008      -18.6946       -17.958      -16.1423      -14.0351      -13.1525      -13.5521      -13.1388      -14.7944      -14.8539       -14.712      -14.2229      -13.3622      -12.6101      -11.5321      -11.2561        -10.07      -9.82596      -9.24869      -9.14329       -9.0701      -9.01129      -8.76117      -8.82082      -7.98953      -7.06121
         5.33     -0.601633      -1.20789      -1.38343        -1.355      -1.48404      -1.78392      -1.68857      -3.26104      -5.75215       -20.241      -28.9139       -29.042      -29.2167      -29.5545      -30.4129       -30.381      -28.2951      -28.1634      -26.1829      -23.8484      -21.8147      -21.5701      -22.2983      -20.3801      -18.4738      -16.8138      -17.1898      -16.9411      -18.2385      -18.6836      -18.5142      -17.4172      -17.0055      -16.2725      -15.2469      -14.8136      -13.8576      -13.6245      -13.1608      -12.9976      -13.0026      -12.8303      -12.7279       -12.679       -11.506      -10.9567
        5.332        6.0698       5.68353       5.46029         5.557       5.47862       4.94862       4.01491       3.28217      0.762943      -11.8869      -21.6265      -21.2675      -21.1359       -21.253      -22.6991      -24.2087       -23.914       -23.791       -20.977      -17.9724      -13.7221      -14.4793      -15.7833      -13.8955       -13.645      -10.4249      -10.7508      -10.6615      -10.9859      -12.1588      -11.9986      -10.7373      -10.9209      -10.3705      -9.45538      -8.71336      -7.99486      -8.02247      -7.74007      -7.60508      -7.66048      -7.53809      -7.49134      -7.33801      -5.97449      -5.72039
        5.334       10.6056       10.1986       9.92341       10.0311       10.0874       9.64007       7.92198       7.10088       5.58745      -5.86664      -16.1528      -16.3627      -16.6365      -16.4731      -16.9825      -18.1569      -21.2928      -20.8652      -17.1004      -12.6673      -9.81899      -9.82567       -10.958      -11.0939      -10.9007      -7.49229      -6.68149         -6.46      -5.62546       -7.4874      -7.35959      -6.79233      -6.84036      -6.62884      -5.78829      -4.87066      -4.27891      -4.35037      -4.18532      -4.10884      -4.13283      -4.15506      -4.01524      -3.72501      -2.49925      -2.27192
        5.336        8.8892       8.46916       7.90463       8.51927       8.65895       8.12886         6.895       4.14198     -0.994485      -12.7205      -17.3945      -17.1935      -17.4209      -17.7279      -19.0407      -19.4148      -22.4159      -23.3864      -21.1309      -16.6688      -11.7313      -11.5899      -11.9812      -12.3055      -12.0839      -10.5584      -8.47641      -8.09432      -7.42311      -8.17918       -8.2756       -8.3871      -8.33104      -8.35342      -7.47945      -6.77958      -6.30526      -5.93372      -5.84838      -5.83764      -5.85413      -5.81476      -5.69656      -5.22179      -4.17848       -3.9479
        5.338       10.9448       9.92149        10.181       10.8517       10.8155       10.1778       8.80543       6.39181       4.24825      -7.59602      -16.6993      -16.2223      -16.1318      -15.6291      -16.1855      -16.3281      -17.7861      -21.1798      -20.3914      -16.6276      -12.8766      -10.3666      -10.3795      -10.2378      -9.99567      -8.69785      -7.02532      -6.55992      -6.42913      -5.55663      -6.04361       -6.3083      -6.51695      -6.87761      -6.21855      -5.52916      -5.39085      -4.63781      -4.61293       -4.6433      -4.78773       -4.4925      -4.46626       -3.9089      -2.98011      -2.75317
         5.34       11.4583       10.7271       11.0428       11.4556       11.2367       10.7719       9.11716       8.27693       4.47723      -7.47209      -16.9189      -17.0182       -17.253      -17.6045      -16.4092      -15.1776      -15.4008      -19.4053       -20.771      -17.9399      -12.7371      -10.1632       -9.6599      -9.61808       -9.6726      -8.21234      -6.94212      -6.42925      -6.33835      -4.71128      -5.37596       -5.3735      -5.49385      -6.22697      -6.30993      -5.41339      -5.20919      -4.59394      -4.60192      -4.65439      -4.79124      -4.42145      -4.36049      -3.83237      -2.94026      -2.79407
        5.342       6.88588       6.69624       6.84428       7.04782       6.85155       6.45295       5.53851       5.35599      0.704844      -13.8526      -23.8863      -23.9192      -24.1279      -24.4302      -24.0643      -19.2484      -21.1602      -21.4903      -24.1867      -23.2993      -18.6423      -15.1608      -13.5387      -13.4825      -13.6238      -13.0739      -11.2071      -10.6987      -10.5561      -9.29751      -9.37747      -9.01961      -8.57646      -9.24706      -9.88879       -9.0309      -9.04405      -8.57088      -8.56575      -8.68022      -8.56478      -8.35449       -8.1744      -7.62442      -6.81679      -6.80038
        5.344       1.61208       1.69126       1.88926       1.98828       2.01893        1.7374       1.35018       1.03272      -2.67416      -18.6498      -30.4828      -30.2042      -31.4809      -31.8613        -35.11      -32.4933      -24.0294       -25.591      -28.9094      -29.2148      -26.3393      -21.4066      -19.0995      -18.4209      -18.7467      -18.0641      -15.8473      -15.5115      -15.3154      -14.7842      -14.3082      -13.8959      -12.6914      -12.7906      -13.4172       -12.883      -13.3145      -13.1386      -13.1502      -13.3416      -12.8932      -12.8779      -12.6063      -11.9275      -11.3321      -11.4446
        5.346       6.04122        5.9924       6.02604       6.02285       6.17629       6.37868       6.57388       5.36648        1.8689      -13.9634      -27.0136      -24.9227      -26.9074      -26.8644      -28.4027      -30.3419       -25.076      -21.8137      -23.7736      -26.0127      -24.9186      -20.1415      -16.2899      -14.6907      -14.8012       -13.722      -11.8419      -11.4896      -11.2241      -11.1276      -10.7163      -10.6876       -9.1213      -8.18275      -8.67699      -8.41565      -8.82459        -9.654      -9.80194      -9.96587      -9.51718      -9.52187      -9.16764       -8.4107      -8.04691      -8.27858
        5.348       8.57894       8.15579       7.72724       7.33667       7.41464       7.78663       7.64302       5.40721       1.93086      -11.8397      -21.5577      -21.6996       -23.596      -25.1743      -23.9273      -24.0144      -22.5738       -20.174      -20.1466      -25.8645      -22.0753      -19.8583      -16.3652      -12.9717      -12.0247      -10.9827      -9.74604      -9.02888      -8.56399      -8.59716       -8.4164      -8.88208      -7.67741      -5.56443      -5.89117      -5.83321      -5.66722      -7.62233      -7.99006      -7.93711      -7.79207      -7.69336       -7.2335      -6.54394      -6.33728      -6.64978
         5.35       10.2374       9.70862       8.63722       9.24517       10.8815        10.648       9.76356       7.55685       2.36403      -6.85307      -16.1858      -16.2239      -17.1406       -17.274      -18.5554      -22.8536       -23.197      -19.7912      -19.4986      -19.0095       -20.638      -19.4285      -16.9675      -13.1272      -10.4859      -9.18239      -7.81502      -6.95687      -6.31642      -6.20057      -6.14988      -6.86139      -6.41101      -3.83657      -4.01271      -4.03137      -3.38557      -5.75637      -6.30859      -6.07939      -6.27147      -6.01889      -5.53568      -4.94747      -4.88295      -5.22564
        5.352       4.11932       3.20116       2.67733       4.21016        5.8753       7.03265       7.52095       4.71744      -1.24398      -13.0503      -25.6982      -25.6788      -25.0056      -23.7363      -22.1205      -24.4493      -27.4871       -28.384      -26.6041      -24.8198      -24.5297      -23.7434      -23.2634      -21.2384      -16.9594      -14.6076      -13.0425      -12.0817      -11.1605      -10.5997      -10.4666      -11.0872      -11.3226      -9.28086      -9.09569      -8.96212      -8.04667      -10.1944      -10.7129      -10.6212      -10.8459      -10.4647       -10.026      -9.53471      -9.58836      -9.94809
        5.354       1.15688      0.107552     0.0578003       1.38604       3.04215       4.14431       5.83664       5.64522     -0.135103      -12.7508      -28.2488      -28.1908       -28.129      -28.1289      -27.1934      -28.4925      -27.3116      -27.8294      -28.5218      -29.9015      -26.0817       -25.125      -26.0736       -24.399      -22.1726      -18.1235      -16.1615      -14.5045      -13.3199      -12.2741      -11.9228      -12.2225      -12.7678      -11.6976      -11.4018      -11.1175      -10.5006       -11.925      -12.2105      -12.5291      -12.4651      -12.1964      -11.7936      -11.4212      -11.5584       -11.926
        5.356       7.33877        6.3772       6.48856       7.62089       9.18443       10.3625        12.187       13.3357       9.85267      -1.76879      -19.2154      -18.8883      -19.3985       -20.343      -22.1925      -23.7685       -21.411      -22.4301      -22.1144      -21.6119      -20.5706      -17.6633      -17.9835       -19.375      -17.2845      -14.0842      -11.4487      -9.21298      -7.62893      -6.19891      -5.71843      -5.63128      -5.88642      -5.60863      -5.70006      -5.38763      -5.03252      -6.03182      -6.22493      -6.82033      -6.55028      -6.47135      -6.11197      -5.84583      -6.05946      -6.42619
        5.358       1.98743       2.30055       1.93925       3.20543       4.12449       5.20031        7.1908       8.34005       6.16905      -6.15771      -23.3904      -23.3111      -24.1316       -24.537      -25.3585      -25.2546      -24.9811      -26.0009      -24.6986      -23.7195      -23.2042      -20.7638      -21.9835      -22.0917      -21.3569      -20.2008      -16.7919      -14.4758      -12.2003       -10.509      -9.86061       -9.4213      -8.86776      -8.77884      -9.15673      -8.98853      -8.75075       -9.3881      -9.67457      -10.0556      -10.0037      -9.95681      -9.64347      -9.42602      -9.69413      -10.0409
         5.36       6.01746       7.13637       6.52271       7.52373       8.11023        9.1364       11.1493       11.5763       9.81846      -3.84375      -18.2973      -18.4591      -19.1343       -19.726      -20.8974      -19.7665      -20.5379      -21.3598       -20.845      -20.9529      -20.0301      -16.2154      -17.1052      -14.7409      -16.9566      -16.1033      -13.7493      -11.2848      -9.36331      -7.48234      -6.43063        -5.845      -4.72622      -4.26651      -4.49979      -4.66847      -4.72763      -5.34245      -5.83698       -5.9396      -6.18717      -6.16152      -5.92101      -5.75212      -6.07405      -6.38794
        5.362       8.43584       8.04729       8.38852       8.51609        9.2712        10.296       12.3795       12.0945       10.0013      -3.37455      -17.8413      -17.4678      -17.7769      -18.2738      -17.9581      -17.9041       -19.983       -19.379      -19.5422      -20.8144      -21.6492      -16.2804      -16.8919      -13.4107      -15.3189      -15.6589      -13.1716      -11.0582      -9.07851      -7.55479      -5.92459       -5.1701      -4.07403      -3.03893      -2.36513      -2.73361      -3.11467      -3.89608      -4.47638      -4.52979      -4.85311      -4.85121      -4.67895       -4.5803      -4.93806      -5.19381
        5.364       3.30477        2.5691        3.2542       2.84292       3.67547       4.75207       6.69541       5.92377       3.89452       -9.3801       -24.009      -24.2004      -24.0077      -23.9417      -23.5916      -22.7576       -23.366      -25.1831      -26.9755      -26.7104      -26.5838      -22.6957      -21.3551      -19.2836      -18.9764      -20.5485      -17.9466      -17.7251      -15.3363      -13.6133      -11.8733      -10.5493      -9.74598      -8.24117      -6.66007      -6.81847      -7.16507      -8.11079      -8.59423      -8.74206      -9.05321      -9.04744      -8.93722      -8.91205      -9.29731      -9.47386
        5.366       4.33975       3.95081       4.13595        3.7702       4.59508       5.74696       7.28273       6.11032       3.84765      -9.43224      -24.5508      -23.7029       -24.671      -25.5146      -23.7294      -22.2749      -21.9629      -22.5266      -24.8436      -25.9157      -23.6504      -22.2836      -20.4773      -20.2299      -18.0412      -17.5508      -15.1653        -17.08      -16.5762      -13.6824      -12.3895      -10.4671      -9.84708      -8.06824      -6.37223      -5.90071      -6.13052      -7.03883       -7.4023      -7.68757      -8.01181      -7.98662      -7.97857      -8.03688      -8.42853      -8.52833
        5.368       5.05064       4.65649        4.4142       4.16305       5.03033       6.18446       7.19075       5.97995       3.16141      -10.9836      -25.2116      -25.8354      -25.5108      -25.4788      -25.3183      -24.8158      -23.4414      -23.3234      -23.5336      -25.0284      -22.5647       -21.264       -20.267      -19.3199      -17.9759      -14.9217      -14.2696      -15.8944      -16.9516      -14.9693      -13.6506      -11.0957      -10.3539      -8.56469      -6.90319      -5.60067      -5.92115      -6.55907      -6.78731      -7.18197      -7.51586      -7.46928      -7.59772      -7.70226      -8.09996      -8.13453
         5.37       8.53397       8.03817       7.70138       7.50581       8.47049       9.47677        10.117       9.24146       5.93677      -9.83999      -24.0864      -22.7242      -23.9092      -24.7242      -22.7345      -23.4522      -23.4913       -19.756      -19.5842      -19.9919       -19.185      -16.6393      -17.2519      -15.0328      -14.9564      -14.3676       -11.877        -12.76      -13.1763      -13.2081      -12.7954      -9.68602      -8.53577      -7.01198      -5.07209        -3.163      -3.01763      -3.76619      -3.88352      -4.34705       -4.6444      -4.60933       -4.8828      -5.00788      -5.39718      -5.39032
        5.372       15.9733       15.3402        15.005       15.0199        15.954       16.6825        17.271       17.0459       13.7606      -2.97493      -17.9225      -18.5006      -18.0152      -17.2611      -18.3166      -17.8209      -16.3262      -13.6921      -12.8198      -13.2078       -13.337      -11.5265      -9.77078      -8.95735      -8.66703      -8.31387      -4.97744      -5.84353      -5.36171       -6.2641      -7.59677       -5.0048      -3.07471       -2.7994     -0.208687       1.95314       3.42496       2.31209       2.23224       1.73604       1.53271       1.48977       1.09669      0.970186      0.595908      0.633038
        5.374       16.1736       15.4426       15.1717       15.6732        16.295       16.7298       17.4185       17.9795        15.175      -1.41528      -16.6178      -15.8027      -16.4738      -17.4534      -18.3365       -19.812      -18.8475      -15.4044      -13.8407      -12.7071      -12.1019      -11.1461      -9.52892      -7.90137      -7.87813      -8.84082      -2.58439      -5.11759      -4.62291      -5.41322      -7.35087      -5.53405      -3.68123       -4.0484      -2.34127      0.606679       2.60481       2.41039       2.34288       1.91352       1.83258       1.65376       1.23576       1.13557      0.801816      0.851759
        5.376       4.03562       3.18277       3.16493       4.02895       4.16208        4.4087       5.10281       6.26234       4.27592      -11.9058      -26.7863      -28.3141      -28.6558      -28.0964      -29.9665      -30.1376      -31.0909      -28.2077      -27.5136      -26.0616      -23.0187       -21.172      -19.8196      -18.2655      -17.9377      -18.6656      -15.5409      -15.0645      -15.1112      -15.5552      -17.1051      -16.5517      -13.4408      -15.6813      -14.6928      -11.5649      -9.38627      -7.87149      -7.83681      -8.04685      -8.02053      -8.31664      -8.67314      -8.71473       -9.0057      -8.92999
        5.378       1.84901      0.898364       1.28601       1.97746       1.76024       1.90253       2.48257       3.68218       2.48939      -13.3792      -30.0622      -28.2805      -27.6776      -29.3252      -30.4427      -32.1684      -27.8322      -31.4276      -30.6021       -29.839      -28.3495      -23.0363      -20.1553      -19.5907      -19.4758       -20.445      -20.0364      -16.5466      -16.2592       -16.698      -17.9842      -17.7199      -14.8897      -15.7255      -18.4237      -14.6465      -12.1806      -10.0836      -9.93859      -9.84909      -9.77169      -10.1637      -10.4304      -10.4031      -10.6824      -10.5714
         5.38       9.07629       8.20977       8.80896       9.04498       8.74653       8.81272       9.29642       10.1549       9.23593      -5.12944      -18.6134      -19.3413      -20.5892      -20.6821      -20.4096      -21.4896      -21.4722      -24.5695       -23.149      -22.5325      -23.6433      -16.9334       -13.017      -12.5385      -12.6436      -13.9772      -13.2563      -10.5061      -8.68961      -8.94919        -10.58      -9.74256      -7.84679      -6.24623      -10.3154      -10.3827      -6.07598      -4.49373      -4.36169      -3.99917      -3.97246      -4.36567      -4.53402      -4.44344      -4.70422      -4.57604
        5.382       11.3288       10.6172       11.1784       11.0789       10.7793       10.7987       11.2579       11.8606       10.4941      -1.97142      -16.2966      -15.5315      -17.0428      -17.9634      -17.2785      -18.1003      -19.3194      -21.1046      -20.7425      -21.2651      -20.0207      -18.5492      -12.4537      -10.2851      -9.06992      -9.87157      -8.28471      -8.16464      -5.92513       -5.2019      -6.94338      -6.16294      -4.94752      -3.05701      -4.61954      -8.12339      -5.35346       -3.1903       -2.9734      -2.38458      -2.42124      -2.73285      -2.78871      -2.62717      -2.86206       -2.7179
        5.384       6.96826       6.49042       6.78053       6.56307       6.27437       6.27407       6.79169       7.19754       5.06544      -7.28597      -20.1032      -20.1808      -20.5003      -19.7243      -20.2975      -20.9415      -21.9021      -23.5602      -25.5927      -30.2845       -23.044      -17.2425      -16.4655      -14.4976      -12.5272       -10.552      -9.81832      -10.6254      -9.60474      -7.20465      -8.50103      -8.50895      -8.47146      -6.71932      -7.00651      -9.71141      -7.71631      -7.37812      -7.05496      -6.28726      -6.32547      -6.50618      -6.42972      -6.20813      -6.37107      -6.23049