# Probe 0 (0 0 0.005)
# Probe 1 (0 0 0.0155)
# Probe 2 (0 0 0.02653)
# Probe 3 (0 0 0.0381)
# Probe 4 (0 0 0.05026)
# Probe 5 (0 0 0.06302)
# Probe 6 (0 0 0.07642)
# Probe 7 (0 0 0.08)
# Probe 8 (0 0 0.09049)
# Probe 9 (0 0 0.10527)
# Probe 10 (0 0 0.12078)
# Probe 11 (0 0 0.13707)
# Probe 12 (0 0 0.15417)
# Probe 13 (0 0 0.17213)
# Probe 14 (0 0 0.19099)
# Probe 15 (0 0 0.2)
# Probe 16 (0 0 0.21079)
# Probe 17 (0 0 0.23157)
# Probe 18 (0 0 0.2534)
# Probe 19 (0 0 0.27632)
# Probe 20 (0 0 0.30039)
# Probe 21 (0 0 0.32566)
# Probe 22 (0 0 0.35219)
# Probe 23 (0 0 0.38005)
# Probe 24 (0 0 0.4093)
# Probe 25 (0 0 0.44002)
# Probe 26 (0 0 0.47227)
# Probe 27 (0 0 0.50613)
# Probe 28 (0 0 0.54169)
# Probe 29 (0 0 0.57903)
# Probe 30 (0 0 0.61823)
# Probe 31 (0 0 0.65939)
# Probe 32 (0 0 0.70261)
# Probe 33 (0 0 0.74799)
# Probe 34 (0 0 0.79564)
# Probe 35 (0 0 0.84567)
# Probe 36 (0 0 0.8982)
# Probe 37 (0 0 0.95336)
# Probe 38 (0 0 1.01128)
# Probe 39 (0 0 1.0721)
# Probe 40 (0 0 1.13595)
# Probe 41 (0 0 1.203)
# Probe 42 (0 0 1.2734)
# Probe 43 (0 0 1.34732)
# Probe 44 (0 0 1.42493)
# Probe 45 (0 0 1.50643)
# Probe 46 (0 0 1.592)
# Probe 47 (0 0 1.68185)
# Probe 48 (0 0 1.77619)
# Probe 49 (0 0 1.87525)
# Probe 50 (0 0 1.97927)
# Probe 51 (0 0 2.08848)
# Probe 52 (0 0 2.20315)
# Probe 53 (0 0 2.32356)
# Probe 54 (0 0 2.44999)
#       Probe             0             1             2             3             4             5             6             7             8             9            10            11            12            13            14            15            16            17            18            19            20            21            22            23            24            25            26            27            28            29            30            31            32            33            34            35            36            37            38            39            40            41            42            43            44            45            46            47            48            49            50            51            52            53            54
#        Time
        5.302       -1e+300       -1e+300       -1e+300       -1e+300       -1e+300       -1e+300       -1e+300      -15.9423      -18.2888      -16.7097      -16.3909      -13.7604      -11.9403      -10.5576      -9.68605      -9.29325      -8.93369      -8.25763      -7.72046      -7.34572      -7.06388      -6.75527       -6.5785      -6.37068      -6.30019      -6.12406      -5.98379      -5.92207      -6.05762      -6.05762      -5.90789      -6.01444      -6.11176      -6.00323      -6.11289      -6.07491      -5.82812      -5.95142       -1e+300       -1e+300       -1e+300       -1e+300       -1e+300       -1e+300       -1e+300       -1e+300       -1e+300       -1e+300       -1e+300       -1e+300       -1e+300       -1e+300       -1e+300       -1e+300       -1e+300
        5.304       -1e+300       -1e+300       -1e+300       -1e+300       -1e+300       -1e+300       -1e+300      -15.6401        -19.72      -19.0818      -15.8946      -13.9398      -11.9988      -10.5763      -9.77957      -9.38889      -8.99732      -8.34777      -7.79634      -7.33803      -7.00723       -6.8226      -6.68688      -6.49585       -6.3901      -6.18059      -6.11023      -6.15095      -6.13802      -6.13802      -6.03212      -6.12208      -6.19018      -6.01426      -6.16733      -6.13917      -5.87109      -5.97228       -1e+300       -1e+300       -1e+300       -1e+300       -1e+300       -1e+300       -1e+300       -1e+300       -1e+300       -1e+300       -1e+300       -1e+300       -1e+300       -1e+300       -1e+300       -1e+300       -1e+300
        5.306       -1e+300       -1e+300       -1e+300       -1e+300       -1e+300       -1e+300       -1e+300      -17.1887      -18.0158      -18.3895      -16.7888      -15.3931      -13.5313        -12.05      -11.2254      -10.8104      -10.4457      -9.86185      -9.29145      -8.79971      -8.45673      -8.41223      -8.32881       -8.0527      -7.92684      -7.72995      -7.68527      -7.76305      -7.61362      -7.61362      -7.61697      -7.73855      -7.83288      -7.62496      -7.78191      -7.70408      -7.46148      -7.53888       -1e+300       -1e+300       -1e+300       -1e+300       -1e+300       -1e+300       -1e+300       -1e+300       -1e+300       -1e+300       -1e+300       -1e+300       -1e+300       -1e+300       -1e+300       -1e+300       -1e+300
        5.308       -1e+300       -1e+300       -1e+300       -1e+300       -1e+300       -1e+300       -1e+300      -14.4772      -18.5143      -17.3704       -14.754      -13.0318      -11.1271      -9.52317      -8.66498      -8.25263      -7.89331      -7.28857      -6.67228      -6.19128      -5.86394      -5.87837      -5.69949      -5.44907      -5.30288      -5.10559      -5.04457      -5.11177      -5.03499      -5.03499      -5.12519      -5.19229        -5.189      -5.01914      -5.18506      -5.11552      -4.88042      -4.92512       -1e+300       -1e+300       -1e+300       -1e+300       -1e+300       -1e+300       -1e+300       -1e+300       -1e+300       -1e+300       -1e+300       -1e+300       -1e+300       -1e+300       -1e+300       -1e+300       -1e+300
         5.31       -1e+300       -1e+300       -1e+300       -1e+300       -1e+300       -1e+300       -1e+300      -12.9013      -14.4774      -20.7236      -13.1124      -10.9955      -8.90504      -7.27133      -6.37949      -5.95363      -5.57149      -4.88767       -4.2093      -3.75043      -3.48879      -3.31113      -3.15123      -2.94986      -2.79636      -2.62759      -2.54141      -2.55727      -2.64129      -2.64129      -2.61962      -2.66474      -2.62927      -2.47475      -2.64217      -2.54915      -2.32875      -2.33083       -1e+300       -1e+300       -1e+300       -1e+300       -1e+300       -1e+300       -1e+300       -1e+300       -1e+300       -1e+300       -1e+300       -1e+300       -1e+300       -1e+300       -1e+300       -1e+300       -1e+300
        5.312       -1e+300       -1e+300       -1e+300       -1e+300       -1e+300       -1e+300       -1e+300      -15.6882      -14.2842      -19.2913      -15.6689      -12.6313      -10.4724      -9.08367      -8.28954      -7.87265      -7.43736      -6.62759      -5.98936      -5.51797      -5.24912       -4.9386      -4.83525      -4.60374      -4.48997      -4.37381      -4.29782      -4.26261      -4.45342      -4.45342       -4.4151      -4.44493      -4.32146      -4.23425      -4.40203      -4.29638      -4.10982      -4.06411       -1e+300       -1e+300       -1e+300       -1e+300       -1e+300       -1e+300       -1e+300       -1e+300       -1e+300       -1e+300       -1e+300       -1e+300       -1e+300       -1e+300       -1e+300       -1e+300       -1e+300
        5.314       -1e+300       -1e+300       -1e+300       -1e+300       -1e+300       -1e+300       -1e+300      -13.3978      -16.8131      -15.3798      -15.0716      -12.9461       -11.113       -9.7515      -8.95953      -8.47868      -8.01796      -7.16734      -6.51302      -6.10112      -5.79335      -5.44003      -5.34539      -5.07943      -5.02565      -4.94536      -4.90665      -4.84135      -5.14392      -5.14392      -4.97465      -4.97373      -4.82571      -4.76356      -4.94877      -4.84761      -4.69086      -4.63174       -1e+300       -1e+300       -1e+300       -1e+300       -1e+300       -1e+300       -1e+300       -1e+300       -1e+300       -1e+300       -1e+300       -1e+300       -1e+300       -1e+300       -1e+300       -1e+300       -1e+300
        5.316       -1e+300       -1e+300       -1e+300       -1e+300       -1e+300       -1e+300       -1e+300      -15.0007      -17.3566      -15.2419      -16.0805      -14.9957      -13.8972      -12.7631      -11.9566      -11.5164      -11.0469      -10.1818      -9.49807      -9.07191      -8.79159      -8.39836      -8.31193      -8.02299      -8.02512      -7.96486      -7.97141      -7.91877      -8.18622      -8.18622      -7.96251      -7.92531      -7.78877      -7.76365      -7.91526      -7.81021      -7.67955       -7.6077       -1e+300       -1e+300       -1e+300       -1e+300       -1e+300       -1e+300       -1e+300       -1e+300       -1e+300       -1e+300       -1e+300       -1e+300       -1e+300       -1e+300       -1e+300       -1e+300       -1e+300
        5.318       -1e+300       -1e+300       -1e+300       -1e+300       -1e+300       -1e+300       -1e+300      -17.2287      -20.6388      -18.3847      -18.5568      -17.6046      -16.9509      -15.9018      -15.1421      -14.7091      -14.2689      -13.5123      -12.8038      -12.2746       -11.973       -11.582      -11.4536      -11.2218      -11.2612      -11.2205      -11.2397      -11.1978      -11.4007      -11.4007      -11.1449      -11.1315      -11.0523      -11.0331      -11.1501       -11.045      -10.9212      -10.8706       -1e+300       -1e+300       -1e+300       -1e+300       -1e+300       -1e+300       -1e+300       -1e+300       -1e+300       -1e+300       -1e+300       -1e+300       -1e+300       -1e+300       -1e+300       -1e+300       -1e+300
         5.32       -1e+300       -1e+300       -1e+300       -1e+300       -1e+300       -1e+300       -1e+300      -10.6675       -13.509       -13.566      -10.7025      -9.97679      -9.14897      -7.92531      -7.29033       -6.9482      -6.53302      -5.70591      -4.90795      -4.39918       -4.0427      -3.63621      -3.47084      -3.31256      -3.34423      -3.31039       -3.3033      -3.35387      -3.40421      -3.40421      -3.20902      -3.13542      -3.14689      -3.14823      -3.13645      -3.01135      -2.89849      -2.84097       -1e+300       -1e+300       -1e+300       -1e+300       -1e+300       -1e+300       -1e+300       -1e+300       -1e+300       -1e+300       -1e+300       -1e+300       -1e+300       -1e+300       -1e+300       -1e+300       -1e+300
        5.322       -1e+300       -1e+300       -1e+300       -1e+300       -1e+300       -1e+300       -1e+300      -3.06532      -5.24102      -6.30376      -4.50292      -3.05961      -1.80869     -0.637311     -0.077805      0.198345      0.683453       1.54849       2.36976       2.93879       3.30772       3.71302       3.85461       4.01883       3.98877       4.05419       4.09002       3.99134       3.99563       3.99563       4.16917       4.27271       4.13961       4.15398       4.27217       4.41444       4.53028       4.56537       -1e+300       -1e+300       -1e+300       -1e+300       -1e+300       -1e+300       -1e+300       -1e+300       -1e+300       -1e+300       -1e+300       -1e+300       -1e+300       -1e+300       -1e+300       -1e+300       -1e+300
        5.324       -1e+300       -1e+300       -1e+300       -1e+300       -1e+300       -1e+300       -1e+300      -8.65003      -10.6859       -13.379      -10.3478      -9.01759      -7.69476      -6.46321      -5.71861      -5.44645      -4.99404      -4.13314      -3.45975      -2.86049       -2.4795       -2.1606      -2.02835      -1.85589      -1.88047      -1.77477      -1.76421      -1.90202      -1.78321      -1.78321      -1.65541       -1.6177      -1.84844      -1.82535      -1.61684       -1.4585      -1.33901      -1.31931       -1e+300       -1e+300       -1e+300       -1e+300       -1e+300       -1e+300       -1e+300       -1e+300       -1e+300       -1e+300       -1e+300       -1e+300       -1e+300       -1e+300       -1e+300       -1e+300       -1e+300
        5.326       -1e+300       -1e+300       -1e+300       -1e+300       -1e+300       -1e+300       -1e+300      -11.1743      -11.7516      -13.0755      -12.1424      -11.1071      -9.69648      -8.54764      -7.77562      -7.37785      -7.02859      -6.23916      -5.57889      -5.01583      -4.66686      -4.43677      -4.29352      -4.04719      -4.05232      -3.93049       -3.9335      -4.05668      -3.94426      -3.94426      -3.84616      -3.88617      -4.19296      -4.10874      -3.88067      -3.71429      -3.58837      -3.59599       -1e+300       -1e+300       -1e+300       -1e+300       -1e+300       -1e+300       -1e+300       -1e+300       -1e+300       -1e+300       -1e+300       -1e+300       -1e+300       -1e+300       -1e+300       -1e+300       -1e+300
        5.328       -1e+300       -1e+300       -1e+300       -1e+300       -1e+300       -1e+300       -1e+300      -13.6812      -12.0065      -11.9549      -13.3393      -13.7107      -12.4015      -11.3353      -10.6584      -10.2078      -9.87574      -9.13393      -8.51903      -7.97895      -7.69049      -7.53643      -7.35469       -7.0217      -6.98443      -6.89599      -6.88924      -6.94256       -6.8956       -6.8956       -6.8522      -6.95407      -7.26066      -7.14634      -6.90903      -6.75175      -6.62735      -6.65655       -1e+300       -1e+300       -1e+300       -1e+300       -1e+300       -1e+300       -1e+300       -1e+300       -1e+300       -1e+300       -1e+300       -1e+300       -1e+300       -1e+300       -1e+300       -1e+300       -1e+300
         5.33       -1e+300       -1e+300       -1e+300       -1e+300       -1e+300       -1e+300       -1e+300      -17.9997      -19.4743      -21.3971       -17.378      -17.3249      -16.4303      -15.4377      -14.7327      -14.3153      -13.9491      -13.2416      -12.6925      -12.1947      -11.9674       -11.917      -11.6781      -11.2731      -11.2073      -11.1466      -11.1051      -11.0786      -11.1246      -11.1246      -11.1477      -11.2679      -11.5269      -11.4014      -11.1836      -11.0557      -10.9348      -10.9872       -1e+300       -1e+300       -1e+300       -1e+300       -1e+300       -1e+300       -1e+300       -1e+300       -1e+300       -1e+300       -1e+300       -1e+300       -1e+300       -1e+300       -1e+300       -1e+300       -1e+300
        5.332       -1e+300       -1e+300       -1e+300       -1e+300       -1e+300       -1e+300       -1e+300      -13.1735      -17.4583      -15.5546      -11.5721      -10.9609      -10.2117      -9.22453      -8.49189      -8.00616      -7.63717      -7.10448      -6.51844      -6.07645      -5.84874      -5.90445      -5.62729      -5.10466      -5.00778      -4.93125      -4.85447       -4.7767      -4.96952      -4.96952      -5.04142      -5.15247      -5.36486      -5.14743      -4.98419      -4.89469      -4.75727       -4.8668       -1e+300       -1e+300       -1e+300       -1e+300       -1e+300       -1e+300       -1e+300       -1e+300       -1e+300       -1e+300       -1e+300       -1e+300       -1e+300       -1e+300       -1e+300       -1e+300       -1e+300
        5.334       -1e+300       -1e+300       -1e+300       -1e+300       -1e+300       -1e+300       -1e+300      -10.2781      -12.9172      -13.4377        -8.905      -7.02053      -6.01324      -5.01206      -4.37363      -3.93026      -3.51791      -2.99876      -2.32787      -1.94394        -1.717      -1.83703       -1.4559     -0.923108     -0.794444     -0.696515      -0.60004     -0.532837     -0.823232     -0.823232     -0.940959     -0.933612       -1.0283     -0.768456      -0.73054      -0.69689     -0.550938     -0.684676       -1e+300       -1e+300       -1e+300       -1e+300       -1e+300       -1e+300       -1e+300       -1e+300       -1e+300       -1e+300       -1e+300       -1e+300       -1e+300       -1e+300       -1e+300       -1e+300       -1e+300
        5.336       -1e+300       -1e+300       -1e+300       -1e+300       -1e+300       -1e+300       -1e+300      -12.1813      -13.8403      -11.8871      -11.0459      -8.77566      -7.56363      -6.48704      -5.84181      -5.52128      -5.16021      -4.55171      -3.81103      -3.54459      -3.36118      -3.47713      -3.01988      -2.49471      -2.36214      -2.25095      -2.14695      -2.14907      -2.42697      -2.42697      -2.55146      -2.43426      -2.46719      -2.32607      -2.29203      -2.28611      -2.16207      -2.28087       -1e+300       -1e+300       -1e+300       -1e+300       -1e+300       -1e+300       -1e+300       -1e+300       -1e+300       -1e+300       -1e+300       -1e+300       -1e+300       -1e+300       -1e+300       -1e+300       -1e+300
        5.338       -1e+300       -1e+300       -1e+300       -1e+300       -1e+300       -1e+300       -1e+300      -10.0289      -11.2054      -7.49162      -8.50286      -7.08323       -5.8066      -4.69523      -4.11078      -3.94909       -3.6063      -2.88558      -2.15473      -1.88588      -1.72704      -1.80806      -1.29667     -0.827585     -0.712894      -0.59689     -0.497447     -0.597899     -0.869024     -0.869024     -0.962671     -0.705167     -0.725992     -0.629792     -0.675575      -0.70031     -0.583246     -0.692126       -1e+300       -1e+300       -1e+300       -1e+300       -1e+300       -1e+300       -1e+300       -1e+300       -1e+300       -1e+300       -1e+300       -1e+300       -1e+300       -1e+300       -1e+300       -1e+300       -1e+300
         5.34       -1e+300       -1e+300       -1e+300       -1e+300       -1e+300       -1e+300       -1e+300       -9.3099      -11.9694      -10.3289      -8.91431      -6.84492      -5.47591      -4.28396      -3.68578        -3.541      -3.18595       -2.4874      -1.84931      -1.66273      -1.41788       -1.4102     -0.894246     -0.533621     -0.438183      -0.30165     -0.209527     -0.394334     -0.633032     -0.633032     -0.675343     -0.297332      -0.31989     -0.304895     -0.488747     -0.519024     -0.354104     -0.459571       -1e+300       -1e+300       -1e+300       -1e+300       -1e+300       -1e+300       -1e+300       -1e+300       -1e+300       -1e+300       -1e+300       -1e+300       -1e+300       -1e+300       -1e+300       -1e+300       -1e+300
        5.342       -1e+300       -1e+300       -1e+300       -1e+300       -1e+300       -1e+300       -1e+300      -13.3683      -16.4392      -12.5138      -12.1069      -10.9695       -9.5753      -8.37421      -7.68795      -7.42094      -7.05326      -6.40056      -5.90636      -5.97902      -5.57101      -5.42914       -4.9873      -4.70314       -4.6081      -4.44086      -4.35348      -4.59361      -4.78446      -4.78446      -4.78304      -4.31246       -4.3301      -4.36496      -4.51628      -4.56131      -4.49243      -4.64861       -1e+300       -1e+300       -1e+300       -1e+300       -1e+300       -1e+300       -1e+300       -1e+300       -1e+300       -1e+300       -1e+300       -1e+300       -1e+300       -1e+300       -1e+300       -1e+300       -1e+300
        5.344       -1e+300       -1e+300       -1e+300       -1e+300       -1e+300       -1e+300       -1e+300      -18.8622      -20.4478      -21.6911      -17.2831      -15.8653      -14.5775      -13.1813      -12.3853      -12.0649      -11.6949       -11.236      -10.4824      -10.7313      -10.3845      -10.2081      -9.96099      -9.64935      -9.54153      -9.34684      -9.25987      -9.52662      -9.69346      -9.69346      -9.63689       -9.0875      -9.14681      -9.23001      -9.44148      -9.52018      -9.39579      -9.53174       -1e+300       -1e+300       -1e+300       -1e+300       -1e+300       -1e+300       -1e+300       -1e+300       -1e+300       -1e+300       -1e+300       -1e+300       -1e+300       -1e+300       -1e+300       -1e+300       -1e+300
        5.346       -1e+300       -1e+300       -1e+300       -1e+300       -1e+300       -1e+300       -1e+300      -14.5123      -14.7506       -12.465      -12.8991      -11.6217      -10.6674      -9.38407      -8.53852      -8.10682      -7.74699      -7.19402      -6.45258       -6.5427      -6.38131      -6.23985      -6.15518      -5.82568      -5.71077      -5.48674      -5.40726      -5.59893      -5.76414      -5.76414      -5.71266      -5.13891      -5.18444      -5.29582      -5.54312      -5.62382      -5.51788      -5.62175       -1e+300       -1e+300       -1e+300       -1e+300       -1e+300       -1e+300       -1e+300       -1e+300       -1e+300       -1e+300       -1e+300       -1e+300       -1e+300       -1e+300       -1e+300       -1e+300       -1e+300
        5.348       -1e+300       -1e+300       -1e+300       -1e+300       -1e+300       -1e+300       -1e+300      -11.6788       -11.057      -7.31911      -8.85677      -9.06922      -8.37534      -7.34276      -6.49546      -6.03028      -5.62192      -5.08844      -4.65735      -4.38371      -4.22559      -4.10189       -4.0656      -3.79257      -3.69876      -3.46478      -3.40597       -3.4649      -3.62501      -3.62501      -3.60014      -3.04845      -3.07003      -3.18423      -3.45281      -3.54093      -3.44618      -3.52756       -1e+300       -1e+300       -1e+300       -1e+300       -1e+300       -1e+300       -1e+300       -1e+300       -1e+300       -1e+300       -1e+300       -1e+300       -1e+300       -1e+300       -1e+300       -1e+300       -1e+300
         5.35       -1e+300       -1e+300       -1e+300       -1e+300       -1e+300       -1e+300       -1e+300      -9.73653      -7.99958      -6.93392      -8.69417      -7.44893      -6.51198      -5.46953      -4.75341       -4.3424      -3.90141      -3.38724      -2.77462      -2.69104      -2.52008      -2.34946      -2.29292      -2.05229      -1.98368      -1.76538      -1.71414      -1.67974      -1.77444      -1.77444      -1.77711      -1.27585      -1.26731      -1.38924       -1.6468      -1.73361      -1.67045      -1.72419       -1e+300       -1e+300       -1e+300       -1e+300       -1e+300       -1e+300       -1e+300       -1e+300       -1e+300       -1e+300       -1e+300       -1e+300       -1e+300       -1e+300       -1e+300       -1e+300       -1e+300
        5.352       -1e+300       -1e+300       -1e+300       -1e+300       -1e+300       -1e+300       -1e+300      -16.1677      -14.3627      -15.8853      -15.3925      -13.5907      -12.0428      -10.7061      -9.92635      -9.47044      -8.99808      -8.46185      -8.15737       -8.1239      -7.99474      -7.69348      -7.52505      -7.30323      -7.31223      -7.15811      -7.12422      -7.03151      -7.04716      -7.04716      -7.07602      -6.54784      -6.56472      -6.67368      -6.92532      -7.02716      -6.95507      -7.02558       -1e+300       -1e+300       -1e+300       -1e+300       -1e+300       -1e+300       -1e+300       -1e+300       -1e+300       -1e+300       -1e+300       -1e+300       -1e+300       -1e+300       -1e+300       -1e+300       -1e+300
        5.354       -1e+300       -1e+300       -1e+300       -1e+300       -1e+300       -1e+300       -1e+300      -20.3591      -19.6323      -25.0875      -19.6347      -16.2819      -14.5898      -12.8691      -12.0567      -11.5655      -11.1772      -10.8891      -10.6061      -10.7074      -10.6121      -10.1732      -9.74452       -9.5789      -9.63519      -9.57229      -9.54453      -9.34711      -9.33504      -9.33504      -9.33828      -8.97276        -8.863      -8.95823      -9.17242      -9.27289      -9.22824      -9.30193       -1e+300       -1e+300       -1e+300       -1e+300       -1e+300       -1e+300       -1e+300       -1e+300       -1e+300       -1e+300       -1e+300       -1e+300       -1e+300       -1e+300       -1e+300       -1e+300       -1e+300
        5.356       -1e+300       -1e+300       -1e+300       -1e+300       -1e+300       -1e+300       -1e+300      -15.8349       -17.551      -27.9807      -14.2263      -10.5643      -8.51513      -6.78523      -5.91604      -5.54983      -5.33158      -5.08245      -4.97377      -4.91061      -4.75148      -4.22019      -3.66933      -3.52398      -3.59137      -3.59886      -3.55174      -3.36782       -3.3019       -3.3019      -3.25807      -2.95349      -2.80425      -2.85238      -3.01722       -3.1063      -3.07316      -3.15046       -1e+300       -1e+300       -1e+300       -1e+300       -1e+300       -1e+300       -1e+300       -1e+300       -1e+300       -1e+300       -1e+300       -1e+300       -1e+300       -1e+300       -1e+300       -1e+300       -1e+300
        5.358       -1e+300       -1e+300       -1e+300       -1e+300       -1e+300       -1e+300       -1e+300      -21.2905      -24.1478      -26.9802      -17.8075      -14.8569      -12.7123      -11.0931      -10.4364      -10.0657      -9.85775      -9.84595      -9.49723      -9.15543      -8.92511      -8.29217      -7.92699      -7.78425       -7.8738      -7.93201      -7.88455      -7.67545      -7.60085      -7.60085      -7.52411      -7.28919      -7.12142      -7.15388      -7.26958      -7.34815      -7.33555      -7.41666       -1e+300       -1e+300       -1e+300       -1e+300       -1e+300       -1e+300       -1e+300       -1e+300       -1e+300       -1e+300       -1e+300       -1e+300       -1e+300       -1e+300       -1e+300       -1e+300       -1e+300
         5.36       -1e+300       -1e+300       -1e+300       -1e+300       -1e+300       -1e+300       -1e+300      -18.3011      -20.9751      -17.5342      -13.0683      -10.6035      -8.91071      -7.45649      -6.82902      -6.44481      -6.33264      -6.06214      -5.59243      -5.10968       -4.7573      -4.19966      -4.02481      -3.87508      -3.93282      -3.95066      -3.90809      -3.68756      -3.63885      -3.63885      -3.53033      -3.32205      -3.13387      -3.14457      -3.17895      -3.23558      -3.22832      -3.31208       -1e+300       -1e+300       -1e+300       -1e+300       -1e+300       -1e+300       -1e+300       -1e+300       -1e+300       -1e+300       -1e+300       -1e+300       -1e+300       -1e+300       -1e+300       -1e+300       -1e+300
        5.362       -1e+300       -1e+300       -1e+300       -1e+300       -1e+300       -1e+300       -1e+300      -16.4025      -16.1193      -9.76488      -11.0662      -9.52389       -8.0015      -6.61452      -5.90582      -5.59535      -5.55503      -5.04412      -4.36507      -3.79481       -3.4533      -3.08382      -2.92513      -2.80966      -2.81221      -2.75899      -2.72748      -2.55779      -2.50861      -2.50861      -2.38634      -2.16897      -2.01661      -2.03329       -2.0148      -2.05645      -2.06179      -2.14896       -1e+300       -1e+300       -1e+300       -1e+300       -1e+300       -1e+300       -1e+300       -1e+300       -1e+300       -1e+300       -1e+300       -1e+300       -1e+300       -1e+300       -1e+300       -1e+300       -1e+300
        5.364       -1e+300       -1e+300       -1e+300       -1e+300       -1e+300       -1e+300       -1e+300      -19.6334      -16.3918       -18.009      -16.8936      -14.9233      -13.2976      -11.9495      -11.4395      -11.6612      -11.7485      -10.3265      -9.25797      -8.78333      -8.62005      -8.25602      -8.02732      -8.00944      -7.92896      -7.82202      -7.80782      -7.72422      -7.64114      -7.64114      -7.53228      -7.31389      -7.16885      -7.19183      -7.12792      -7.15536      -7.17964      -7.27069       -1e+300       -1e+300       -1e+300       -1e+300       -1e+300       -1e+300       -1e+300       -1e+300       -1e+300       -1e+300       -1e+300       -1e+300       -1e+300       -1e+300       -1e+300       -1e+300       -1e+300
        5.366       -1e+300       -1e+300       -1e+300       -1e+300       -1e+300       -1e+300       -1e+300      -18.1466      -17.2235      -22.1375      -17.7754      -14.4161       -12.662       -11.436      -11.0843      -11.8014      -11.8514      -9.86129      -8.54312      -8.11612      -7.97217      -7.53689      -7.30252      -7.31552      -7.14062      -6.98794      -6.98972      -6.95036      -6.82972      -6.82972      -6.70608       -6.4668      -6.32994      -6.35744       -6.2376      -6.24191      -6.28248      -6.37779       -1e+300       -1e+300       -1e+300       -1e+300       -1e+300       -1e+300       -1e+300       -1e+300       -1e+300       -1e+300       -1e+300       -1e+300       -1e+300       -1e+300       -1e+300       -1e+300       -1e+300
        5.368       -1e+300       -1e+300       -1e+300       -1e+300       -1e+300       -1e+300       -1e+300      -17.7266      -19.7191      -23.1154      -22.4886      -14.3676      -12.5719      -11.4337      -11.0597      -11.6845       -11.557      -9.90974      -8.51012      -8.16086      -7.91607      -7.44464      -7.24735      -7.18303       -6.9579      -6.81089      -6.82653       -6.8089      -6.69446      -6.69446      -6.54214      -6.34688      -6.25858       -6.2329      -6.06609      -6.04567      -6.10666      -6.20065       -1e+300       -1e+300       -1e+300       -1e+300       -1e+300       -1e+300       -1e+300       -1e+300       -1e+300       -1e+300       -1e+300       -1e+300       -1e+300       -1e+300       -1e+300       -1e+300       -1e+300
         5.37       -1e+300       -1e+300       -1e+300       -1e+300       -1e+300       -1e+300       -1e+300       -15.234      -16.4774      -15.8649      -13.3763      -11.3188      -9.70888      -8.68189      -8.27086      -8.59886      -8.52268      -7.40041      -5.86466      -5.60306      -5.26898      -4.78752       -4.5569      -4.34215      -4.10798      -3.96889      -3.98206      -3.96282      -3.81637      -3.81637      -3.70108      -3.55083      -3.45314      -3.38254      -3.18463      -3.14261      -3.21915      -3.33316       -1e+300       -1e+300       -1e+300       -1e+300       -1e+300       -1e+300       -1e+300       -1e+300       -1e+300       -1e+300       -1e+300       -1e+300       -1e+300       -1e+300       -1e+300       -1e+300       -1e+300