# Probe 0 (0 0 0.005)
# Probe 1 (0 0 0.0155)
# Probe 2 (0 0 0.02653)
# Probe 3 (0 0 0.0381)
# Probe 4 (0 0 0.05026)
# Probe 5 (0 0 0.06302)
# Probe 6 (0 0 0.07642)
# Probe 7 (0 0 0.08)
# Probe 8 (0 0 0.09049)
# Probe 9 (0 0 0.10527)
# Probe 10 (0 0 0.12078)
# Probe 11 (0 0 0.13707)
# Probe 12 (0 0 0.15417)
# Probe 13 (0 0 0.17213)
# Probe 14 (0 0 0.19099)
# Probe 15 (0 0 0.2)
# Probe 16 (0 0 0.21079)
# Probe 17 (0 0 0.23157)
# Probe 18 (0 0 0.2534)
# Probe 19 (0 0 0.27632)
# Probe 20 (0 0 0.30039)
# Probe 21 (0 0 0.32566)
# Probe 22 (0 0 0.35219)
# Probe 23 (0 0 0.38005)
# Probe 24 (0 0 0.4093)
# Probe 25 (0 0 0.44002)
# Probe 26 (0 0 0.47227)
# Probe 27 (0 0 0.50613)
# Probe 28 (0 0 0.54169)
# Probe 29 (0 0 0.57903)
# Probe 30 (0 0 0.61823)
# Probe 31 (0 0 0.65939)
# Probe 32 (0 0 0.70261)
# Probe 33 (0 0 0.74799)
# Probe 34 (0 0 0.79564)
# Probe 35 (0 0 0.84567)
# Probe 36 (0 0 0.8982)
# Probe 37 (0 0 0.95336)
# Probe 38 (0 0 1.01128)
# Probe 39 (0 0 1.0721)
# Probe 40 (0 0 1.13595)
# Probe 41 (0 0 1.203)
# Probe 42 (0 0 1.2734)
# Probe 43 (0 0 1.34732)
# Probe 44 (0 0 1.42493)
# Probe 45 (0 0 1.50643)
# Probe 46 (0 0 1.592)
# Probe 47 (0 0 1.68185)
# Probe 48 (0 0 1.77619)
# Probe 49 (0 0 1.87525)
# Probe 50 (0 0 1.97927)
# Probe 51 (0 0 2.08848)
# Probe 52 (0 0 2.20315)
# Probe 53 (0 0 2.32356)
# Probe 54 (0 0 2.44999)
#       Probe             0             1             2             3             4             5             6             7             8             9            10            11            12            13            14            15            16            17            18            19            20            21            22            23            24            25            26            27            28            29            30            31            32            33            34            35            36            37            38            39            40            41            42            43            44            45            46            47            48            49            50            51            52            53            54
#        Time
        5.302             (-1e+300 -1e+300 -1e+300)             (-1e+300 -1e+300 -1e+300)             (-1e+300 -1e+300 -1e+300)             (-1e+300 -1e+300 -1e+300)             (-1e+300 -1e+300 -1e+300)             (-1e+300 -1e+300 -1e+300)             (-1e+300 -1e+300 -1e+300)             (-0.0436491 -0.144523 -0.000239755)             (0.723293 0.342248 -2.24014)             (6.33836 -3.79074 0.828901)             (7.31224 0.502778 0.372099)             (7.19591 -0.0107371 0.156065)             (7.18173 -0.203926 0.0332097)             (6.58494 -0.373984 -0.334006)             (6.92405 0.0474676 0.375541)             (6.86129 0.140035 0.349384)             (7.00303 0.212045 0.493333)             (7.13553 0.16185 0.499067)             (7.05408 0.440532 0.427589)             (7.19077 0.465823 0.455235)             (7.10975 0.447575 0.281914)             (8.75851 0.187008 0.647979)             (8.71655 0.127343 0.731648)             (8.73572 0.150286 0.692409)             (8.44279 0.162228 0.811303)             (8.64849 0.0723245 0.695111)             (8.13646 0.255882 0.522943)             (8.48223 -0.6154 -0.0336609)             (9.25887 -0.523035 0.322766)             (9.25887 -0.523035 0.322766)             (9.20656 -0.320486 0.410718)             (9.19791 -0.271911 0.0699574)             (8.81283 -0.165524 -0.0126499)             (8.56655 -0.056784 0.035501)             (8.73227 0.383437 -0.168114)             (8.99409 0.87155 -0.0250465)             (9.12068 0.903686 -0.0361861)             (9.41103 0.718712 -0.0287715)             (-1e+300 -1e+300 -1e+300)             (-1e+300 -1e+300 -1e+300)             (-1e+300 -1e+300 -1e+300)             (-1e+300 -1e+300 -1e+300)             (-1e+300 -1e+300 -1e+300)             (-1e+300 -1e+300 -1e+300)             (-1e+300 -1e+300 -1e+300)             (-1e+300 -1e+300 -1e+300)             (-1e+300 -1e+300 -1e+300)             (-1e+300 -1e+300 -1e+300)             (-1e+300 -1e+300 -1e+300)             (-1e+300 -1e+300 -1e+300)             (-1e+300 -1e+300 -1e+300)             (-1e+300 -1e+300 -1e+300)             (-1e+300 -1e+300 -1e+300)             (-1e+300 -1e+300 -1e+300)             (-1e+300 -1e+300 -1e+300)
        5.304             (-1e+300 -1e+300 -1e+300)             (-1e+300 -1e+300 -1e+300)             (-1e+300 -1e+300 -1e+300)             (-1e+300 -1e+300 -1e+300)             (-1e+300 -1e+300 -1e+300)             (-1e+300 -1e+300 -1e+300)             (-1e+300 -1e+300 -1e+300)             (-0.0575477 -0.117197 -0.000247458)             (2.0704 0.127387 -1.16408)             (4.17709 -2.01872 0.421529)             (6.91305 0.286392 0.757498)             (6.9573 -0.298872 0.420034)             (6.88454 -0.242741 -0.00782263)             (7.01573 -0.169958 0.257362)             (6.95529 -0.184836 0.408218)             (7.04849 -0.153172 0.547292)             (7.21749 -0.0280226 0.706637)             (7.09902 0.149236 0.643013)             (6.95355 0.11769 0.598854)             (7.18293 0.389754 0.433761)             (7.27716 0.278708 0.236636)             (8.8615 -0.0339268 0.795348)             (8.76943 0.0574365 0.77122)             (8.82282 0.209489 0.597448)             (8.52103 0.218471 0.682194)             (8.5753 -0.0152296 0.514339)             (8.03564 0.106576 0.41629)             (8.47237 -0.488702 0.154406)             (9.46789 -0.497716 0.192917)             (9.46789 -0.497716 0.192917)             (9.19577 -0.275993 0.327098)             (9.16204 -0.173496 0.0190412)             (8.80903 -0.0917883 -0.0739041)             (8.55457 -0.00581175 0.0817565)             (8.67018 0.401241 -0.0697629)             (8.9257 0.821996 0.0303952)             (9.02374 0.910301 0.0439068)             (9.35464 0.791249 0.0386144)             (-1e+300 -1e+300 -1e+300)             (-1e+300 -1e+300 -1e+300)             (-1e+300 -1e+300 -1e+300)             (-1e+300 -1e+300 -1e+300)             (-1e+300 -1e+300 -1e+300)             (-1e+300 -1e+300 -1e+300)             (-1e+300 -1e+300 -1e+300)             (-1e+300 -1e+300 -1e+300)             (-1e+300 -1e+300 -1e+300)             (-1e+300 -1e+300 -1e+300)             (-1e+300 -1e+300 -1e+300)             (-1e+300 -1e+300 -1e+300)             (-1e+300 -1e+300 -1e+300)             (-1e+300 -1e+300 -1e+300)             (-1e+300 -1e+300 -1e+300)             (-1e+300 -1e+300 -1e+300)             (-1e+300 -1e+300 -1e+300)
        5.306             (-1e+300 -1e+300 -1e+300)             (-1e+300 -1e+300 -1e+300)             (-1e+300 -1e+300 -1e+300)             (-1e+300 -1e+300 -1e+300)             (-1e+300 -1e+300 -1e+300)             (-1e+300 -1e+300 -1e+300)             (-1e+300 -1e+300 -1e+300)             (-0.0862974 -0.0586712 -0.000122983)             (2.37245 0.892891 -0.402269)             (6.04723 -1.02098 -1.85658)             (6.56464 0.389382 0.339373)             (6.88783 -0.586293 0.708507)             (7.04605 -0.322571 -0.0239863)             (7.42771 -0.215278 0.315525)             (7.08759 -0.267486 0.446146)             (7.18893 -0.226279 0.65618)             (7.17113 -0.0675061 0.622112)             (7.00618 0.438059 0.711387)             (6.89901 0.0442527 0.641659)             (7.14141 0.293797 0.423213)             (7.5758 0.0386397 0.213388)             (8.94105 0.086137 0.662714)             (8.841 0.414045 0.544712)             (8.84884 0.280411 0.476234)             (8.57362 0.307486 0.513375)             (8.4683 -0.0834308 0.305994)             (7.97961 -0.0319064 0.292999)             (8.52475 -0.324474 0.38533)             (9.63859 -0.449937 0.0517566)             (9.63859 -0.449937 0.0517566)             (9.20406 -0.215396 0.217283)             (9.12535 -0.0368913 -0.0188752)             (8.82105 0.0255331 -0.122209)             (8.54977 0.0708856 0.137604)             (8.61444 0.422236 0.0246164)             (8.85697 0.775587 0.0818634)             (8.92657 0.916149 0.121238)             (9.27918 0.86335 0.105951)             (-1e+300 -1e+300 -1e+300)             (-1e+300 -1e+300 -1e+300)             (-1e+300 -1e+300 -1e+300)             (-1e+300 -1e+300 -1e+300)             (-1e+300 -1e+300 -1e+300)             (-1e+300 -1e+300 -1e+300)             (-1e+300 -1e+300 -1e+300)             (-1e+300 -1e+300 -1e+300)             (-1e+300 -1e+300 -1e+300)             (-1e+300 -1e+300 -1e+300)             (-1e+300 -1e+300 -1e+300)             (-1e+300 -1e+300 -1e+300)             (-1e+300 -1e+300 -1e+300)             (-1e+300 -1e+300 -1e+300)             (-1e+300 -1e+300 -1e+300)             (-1e+300 -1e+300 -1e+300)             (-1e+300 -1e+300 -1e+300)
        5.308             (-1e+300 -1e+300 -1e+300)             (-1e+300 -1e+300 -1e+300)             (-1e+300 -1e+300 -1e+300)             (-1e+300 -1e+300 -1e+300)             (-1e+300 -1e+300 -1e+300)             (-1e+300 -1e+300 -1e+300)             (-1e+300 -1e+300 -1e+300)             (-0.0546406 -0.0260551 -0.000397604)             (3.035 1.11215 -1.70936)             (5.43248 -0.315655 -0.642166)             (7.0208 0.00858089 0.246004)             (7.05516 -0.779649 1.11699)             (7.24831 -0.119046 0.0428441)             (7.39347 0.188598 0.0367956)             (7.21776 0.175217 0.399568)             (7.05012 0.157156 0.481293)             (6.90282 0.255568 0.453024)             (6.9942 0.437467 0.584513)             (6.98815 0.133346 0.542753)             (7.08822 0.24407 0.379965)             (7.85784 -0.140667 0.265447)             (9.0258 0.561836 0.376508)             (8.89868 0.780376 0.252053)             (8.84214 0.337512 0.339054)             (8.58979 0.392256 0.340317)             (8.35765 -0.145493 0.124072)             (8.00008 -0.159374 0.198273)             (8.60446 -0.209435 0.591146)             (9.74168 -0.380812 -0.0791562)             (9.74168 -0.380812 -0.0791562)             (9.23019 -0.13954 0.0887293)             (9.10266 0.133278 -0.0471874)             (8.85806 0.188196 -0.153961)             (8.56052 0.17779 0.202094)             (8.57031 0.450901 0.112719)             (8.79227 0.738854 0.128612)             (8.83653 0.919639 0.191363)             (9.19207 0.929769 0.168722)             (-1e+300 -1e+300 -1e+300)             (-1e+300 -1e+300 -1e+300)             (-1e+300 -1e+300 -1e+300)             (-1e+300 -1e+300 -1e+300)             (-1e+300 -1e+300 -1e+300)             (-1e+300 -1e+300 -1e+300)             (-1e+300 -1e+300 -1e+300)             (-1e+300 -1e+300 -1e+300)             (-1e+300 -1e+300 -1e+300)             (-1e+300 -1e+300 -1e+300)             (-1e+300 -1e+300 -1e+300)             (-1e+300 -1e+300 -1e+300)             (-1e+300 -1e+300 -1e+300)             (-1e+300 -1e+300 -1e+300)             (-1e+300 -1e+300 -1e+300)             (-1e+300 -1e+300 -1e+300)             (-1e+300 -1e+300 -1e+300)
         5.31             (-1e+300 -1e+300 -1e+300)             (-1e+300 -1e+300 -1e+300)             (-1e+300 -1e+300 -1e+300)             (-1e+300 -1e+300 -1e+300)             (-1e+300 -1e+300 -1e+300)             (-1e+300 -1e+300 -1e+300)             (-1e+300 -1e+300 -1e+300)             (-0.0469633 -0.0265779 -0.000431191)             (2.37268 0.818473 -1.89738)             (3.59699 -0.156238 1.2978)             (7.39868 -0.856584 0.234287)             (7.02556 -0.532535 0.434612)             (7.18176 -0.221701 0.348202)             (7.70919 0.296736 0.248098)             (7.35216 0.401611 0.28753)             (7.06406 0.336102 0.360709)             (6.94261 0.286282 0.512954)             (6.90565 0.275012 0.602655)             (7.08633 0.210622 0.396071)             (7.05729 0.250625 0.262679)             (8.02571 -0.0928485 0.35073)             (9.0677 0.922236 0.174589)             (8.87669 0.759721 0.00518325)             (8.8251 0.365633 0.197967)             (8.57987 0.430238 0.197625)             (8.28143 -0.19787 0.0181865)             (8.11555 -0.260615 0.16972)             (8.68133 -0.180271 0.707276)             (9.7615 -0.290354 -0.184099)             (9.7615 -0.290354 -0.184099)             (9.26454 -0.0491953 -0.051198)             (9.103 0.329338 -0.0712222)             (8.9222 0.389905 -0.168992)             (8.5906 0.313822 0.26969)             (8.53746 0.48914 0.195595)             (8.73034 0.715771 0.171547)             (8.75589 0.919451 0.251327)             (9.09768 0.984433 0.221657)             (-1e+300 -1e+300 -1e+300)             (-1e+300 -1e+300 -1e+300)             (-1e+300 -1e+300 -1e+300)             (-1e+300 -1e+300 -1e+300)             (-1e+300 -1e+300 -1e+300)             (-1e+300 -1e+300 -1e+300)             (-1e+300 -1e+300 -1e+300)             (-1e+300 -1e+300 -1e+300)             (-1e+300 -1e+300 -1e+300)             (-1e+300 -1e+300 -1e+300)             (-1e+300 -1e+300 -1e+300)             (-1e+300 -1e+300 -1e+300)             (-1e+300 -1e+300 -1e+300)             (-1e+300 -1e+300 -1e+300)             (-1e+300 -1e+300 -1e+300)             (-1e+300 -1e+300 -1e+300)             (-1e+300 -1e+300 -1e+300)
        5.312             (-1e+300 -1e+300 -1e+300)             (-1e+300 -1e+300 -1e+300)             (-1e+300 -1e+300 -1e+300)             (-1e+300 -1e+300 -1e+300)             (-1e+300 -1e+300 -1e+300)             (-1e+300 -1e+300 -1e+300)             (-1e+300 -1e+300 -1e+300)             (-0.0471289 0.0205597 0.000422218)             (2.27881 0.199793 -1.16838)             (1.53098 1.80807 1.87827)             (7.58752 -0.898966 0.132567)             (7.12809 -0.166151 0.0710805)             (7.39834 -0.174607 0.905606)             (7.79919 0.297506 0.546085)             (7.42498 0.0354876 0.305277)             (7.30474 -0.123626 0.282013)             (7.12621 -0.227522 0.239424)             (6.87512 0.165015 0.467633)             (7.11413 0.200703 0.184063)             (7.10067 0.266397 0.113396)             (8.15915 0.127072 0.356854)             (8.99971 0.931836 0.0295549)             (8.79141 0.456349 -0.187696)             (8.80957 0.354745 0.0833125)             (8.56313 0.385638 0.110949)             (8.26941 -0.229752 0.0180071)             (8.31923 -0.310741 0.217883)             (8.73161 -0.214924 0.692522)             (9.70135 -0.179676 -0.260722)             (9.70135 -0.179676 -0.260722)             (9.29378 0.0543476 -0.19447)             (9.12547 0.53885 -0.0940945)             (9.00896 0.614814 -0.166583)             (8.64079 0.467713 0.334629)             (8.51027 0.533162 0.271437)             (8.6652 0.704412 0.210382)             (8.67816 0.911788 0.299913)             (8.99483 1.02052 0.261689)             (-1e+300 -1e+300 -1e+300)             (-1e+300 -1e+300 -1e+300)             (-1e+300 -1e+300 -1e+300)             (-1e+300 -1e+300 -1e+300)             (-1e+300 -1e+300 -1e+300)             (-1e+300 -1e+300 -1e+300)             (-1e+300 -1e+300 -1e+300)             (-1e+300 -1e+300 -1e+300)             (-1e+300 -1e+300 -1e+300)             (-1e+300 -1e+300 -1e+300)             (-1e+300 -1e+300 -1e+300)             (-1e+300 -1e+300 -1e+300)             (-1e+300 -1e+300 -1e+300)             (-1e+300 -1e+300 -1e+300)             (-1e+300 -1e+300 -1e+300)             (-1e+300 -1e+300 -1e+300)             (-1e+300 -1e+300 -1e+300)
        5.314             (-1e+300 -1e+300 -1e+300)             (-1e+300 -1e+300 -1e+300)             (-1e+300 -1e+300 -1e+300)             (-1e+300 -1e+300 -1e+300)             (-1e+300 -1e+300 -1e+300)             (-1e+300 -1e+300 -1e+300)             (-1e+300 -1e+300 -1e+300)             (0.0373109 -0.224633 -0.000510009)             (0.663607 -1.13624 -0.390636)             (1.64597 0.968014 1.00381)             (7.35864 -1.65208 0.754681)             (7.52411 -0.00146173 0.512616)             (7.84379 0.53018 0.20786)             (7.50622 0.37414 -0.0281671)             (7.31919 -0.35537 -0.0371426)             (7.26454 -0.496168 -0.0220873)             (7.09397 -0.372203 -0.154027)             (6.96266 0.289991 -0.0228038)             (7.22862 0.134969 -0.0718782)             (7.30663 0.228637 0.0613652)             (8.3194 0.195643 0.262192)             (8.82242 0.766803 -0.0778425)             (8.77403 0.253632 -0.263055)             (8.80153 0.302526 0.0265462)             (8.56026 0.249792 0.0836323)             (8.334 -0.233635 0.108243)             (8.57047 -0.288029 0.305161)             (8.74617 -0.259994 0.540821)             (9.58884 -0.0500615 -0.316149)             (9.58884 -0.0500615 -0.316149)             (9.31386 0.172412 -0.333367)             (9.17328 0.748311 -0.117809)             (9.11764 0.841097 -0.148031)             (8.71862 0.622689 0.387207)             (8.48887 0.578711 0.338515)             (8.59901 0.70302 0.244669)             (8.60503 0.895674 0.33694)             (8.88942 1.03539 0.287094)             (-1e+300 -1e+300 -1e+300)             (-1e+300 -1e+300 -1e+300)             (-1e+300 -1e+300 -1e+300)             (-1e+300 -1e+300 -1e+300)             (-1e+300 -1e+300 -1e+300)             (-1e+300 -1e+300 -1e+300)             (-1e+300 -1e+300 -1e+300)             (-1e+300 -1e+300 -1e+300)             (-1e+300 -1e+300 -1e+300)             (-1e+300 -1e+300 -1e+300)             (-1e+300 -1e+300 -1e+300)             (-1e+300 -1e+300 -1e+300)             (-1e+300 -1e+300 -1e+300)             (-1e+300 -1e+300 -1e+300)             (-1e+300 -1e+300 -1e+300)             (-1e+300 -1e+300 -1e+300)             (-1e+300 -1e+300 -1e+300)
        5.316             (-1e+300 -1e+300 -1e+300)             (-1e+300 -1e+300 -1e+300)             (-1e+300 -1e+300 -1e+300)             (-1e+300 -1e+300 -1e+300)             (-1e+300 -1e+300 -1e+300)             (-1e+300 -1e+300 -1e+300)             (-1e+300 -1e+300 -1e+300)             (0.1654 -0.351121 -5.32415e-05)             (1.35482 1.12596 -0.980881)             (1.37535 2.0839 0.60254)             (4.31815 -1.27363 1.49229)             (7.85999 -0.138027 0.662332)             (7.92027 0.103272 -0.378262)             (7.42085 -0.294901 -0.632781)             (7.3384 -0.355012 -0.31976)             (7.15144 -0.128476 -0.332259)             (6.97895 0.220552 -0.488195)             (7.16291 0.125428 -0.52148)             (7.49511 0.107065 -0.228216)             (7.67906 0.129152 0.177626)             (8.34804 0.0528249 0.205204)             (8.64512 0.57574 -0.0922272)             (8.83223 0.258683 -0.182172)             (8.78806 0.211308 0.0311988)             (8.56796 0.0522109 0.0885019)             (8.45088 -0.211062 0.216592)             (8.79443 -0.191632 0.355038)             (8.72767 -0.26732 0.288404)             (9.45219 0.093135 -0.365228)             (9.45219 0.093135 -0.365228)             (9.31861 0.303711 -0.458196)             (9.24225 0.941482 -0.141398)             (9.24137 1.04063 -0.11446)             (8.8263 0.755056 0.416672)             (8.471 0.618492 0.392521)             (8.5301 0.706936 0.272362)             (8.53312 0.870184 0.362774)             (8.78167 1.02817 0.297889)             (-1e+300 -1e+300 -1e+300)             (-1e+300 -1e+300 -1e+300)             (-1e+300 -1e+300 -1e+300)             (-1e+300 -1e+300 -1e+300)             (-1e+300 -1e+300 -1e+300)             (-1e+300 -1e+300 -1e+300)             (-1e+300 -1e+300 -1e+300)             (-1e+300 -1e+300 -1e+300)             (-1e+300 -1e+300 -1e+300)             (-1e+300 -1e+300 -1e+300)             (-1e+300 -1e+300 -1e+300)             (-1e+300 -1e+300 -1e+300)             (-1e+300 -1e+300 -1e+300)             (-1e+300 -1e+300 -1e+300)             (-1e+300 -1e+300 -1e+300)             (-1e+300 -1e+300 -1e+300)             (-1e+300 -1e+300 -1e+300)
        5.318             (-1e+300 -1e+300 -1e+300)             (-1e+300 -1e+300 -1e+300)             (-1e+300 -1e+300 -1e+300)             (-1e+300 -1e+300 -1e+300)             (-1e+300 -1e+300 -1e+300)             (-1e+300 -1e+300 -1e+300)             (-1e+300 -1e+300 -1e+300)             (0.322504 -0.222447 -0.000288922)             (1.88966 -1.17696 -1.45712)             (3.70906 -1.32624 -1.27355)             (6.19472 0.807538 0.569185)             (7.42028 0.135531 0.208688)             (7.68961 -0.0943718 -0.479937)             (7.59536 -0.0720764 -0.196778)             (7.34252 0.244323 -0.376703)             (7.04632 0.354596 -0.601574)             (7.11197 0.273579 -0.632954)             (7.47846 -0.000946569 -0.215038)             (7.80346 0.265366 -0.13606)             (8.04235 0.0996412 0.337736)             (8.21 -0.0644379 0.275986)             (8.60789 0.37233 0.0159385)             (8.83867 0.25957 -0.0139053)             (8.75637 0.0985711 0.0619363)             (8.57256 -0.146194 0.0813181)             (8.58643 -0.156922 0.24676)             (8.93013 -0.0423725 0.290752)             (8.70409 -0.212989 0.00446224)             (9.31773 0.242784 -0.418121)             (9.31773 0.242784 -0.418121)             (9.31182 0.442496 -0.556929)             (9.32963 1.0996 -0.162126)             (9.37102 1.18255 -0.0687556)             (8.96369 0.840772 0.413665)             (8.45791 0.644786 0.427441)             (8.4606 0.710169 0.290798)             (8.46235 0.834378 0.378002)             (8.67347 0.999614 0.295325)             (-1e+300 -1e+300 -1e+300)             (-1e+300 -1e+300 -1e+300)             (-1e+300 -1e+300 -1e+300)             (-1e+300 -1e+300 -1e+300)             (-1e+300 -1e+300 -1e+300)             (-1e+300 -1e+300 -1e+300)             (-1e+300 -1e+300 -1e+300)             (-1e+300 -1e+300 -1e+300)             (-1e+300 -1e+300 -1e+300)             (-1e+300 -1e+300 -1e+300)             (-1e+300 -1e+300 -1e+300)             (-1e+300 -1e+300 -1e+300)             (-1e+300 -1e+300 -1e+300)             (-1e+300 -1e+300 -1e+300)             (-1e+300 -1e+300 -1e+300)             (-1e+300 -1e+300 -1e+300)             (-1e+300 -1e+300 -1e+300)
         5.32             (-1e+300 -1e+300 -1e+300)             (-1e+300 -1e+300 -1e+300)             (-1e+300 -1e+300 -1e+300)             (-1e+300 -1e+300 -1e+300)             (-1e+300 -1e+300 -1e+300)             (-1e+300 -1e+300 -1e+300)             (-1e+300 -1e+300 -1e+300)             (0.176895 -0.0691274 -0.000385332)             (1.37799 -1.24657 -1.7101)             (2.73588 2.37829 -1.00718)             (7.22506 -0.241943 -0.395949)             (7.24887 -0.0875558 -0.476576)             (7.5204 0.400455 0.132264)             (7.59117 0.687936 0.222133)             (7.141 0.445742 -0.224047)             (7.19754 0.212484 -0.297933)             (7.45358 0.00300168 -0.152455)             (7.46598 0.482304 0.0630112)             (7.98429 0.555907 0.254443)             (8.1962 0.222632 0.400552)             (8.11102 -0.0407293 0.369102)             (8.76311 0.187359 0.143077)             (8.80487 0.135206 0.115977)             (8.71653 -0.00286849 0.0617222)             (8.578 -0.273179 0.0278508)             (8.72801 -0.0550891 0.128566)             (8.98328 0.126389 0.0816284)             (8.73752 -0.0891849 -0.238755)             (9.21595 0.394456 -0.480052)             (9.21595 0.394456 -0.480052)             (9.30966 0.582794 -0.619896)             (9.4452 1.20602 -0.176321)             (9.50958 1.2423 -0.0173219)             (9.13842 0.86487 0.371717)             (8.46661 0.655749 0.435672)             (8.40846 0.710793 0.296398)             (8.40814 0.791783 0.382557)             (8.58052 0.955889 0.281227)             (-1e+300 -1e+300 -1e+300)             (-1e+300 -1e+300 -1e+300)             (-1e+300 -1e+300 -1e+300)             (-1e+300 -1e+300 -1e+300)             (-1e+300 -1e+300 -1e+300)             (-1e+300 -1e+300 -1e+300)             (-1e+300 -1e+300 -1e+300)             (-1e+300 -1e+300 -1e+300)             (-1e+300 -1e+300 -1e+300)             (-1e+300 -1e+300 -1e+300)             (-1e+300 -1e+300 -1e+300)             (-1e+300 -1e+300 -1e+300)             (-1e+300 -1e+300 -1e+300)             (-1e+300 -1e+300 -1e+300)             (-1e+300 -1e+300 -1e+300)             (-1e+300 -1e+300 -1e+300)             (-1e+300 -1e+300 -1e+300)
        5.322             (-1e+300 -1e+300 -1e+300)             (-1e+300 -1e+300 -1e+300)             (-1e+300 -1e+300 -1e+300)             (-1e+300 -1e+300 -1e+300)             (-1e+300 -1e+300 -1e+300)             (-1e+300 -1e+300 -1e+300)             (-1e+300 -1e+300 -1e+300)             (0.0926415 -0.101517 -0.000602761)             (0.787873 -1.57649 -1.29478)             (2.08121 -1.21829 -1.44029)             (7.10895 -0.104026 0.190261)             (7.28477 0.140116 -0.183645)             (7.72172 -0.0470343 0.236973)             (7.61784 0.790849 0.264283)             (7.01944 0.667749 0.175392)             (7.44562 0.273796 0.219346)             (7.80299 0.416487 0.274959)             (7.43758 0.723585 0.123998)             (8.08508 0.437237 0.58451)             (8.16463 0.268879 0.392564)             (8.15878 0.0796096 0.340979)             (8.99784 0.0696739 0.065104)             (8.8661 -0.0202562 0.0770667)             (8.68372 -0.0623472 -0.011579)             (8.59 -0.2863 -0.0767532)             (8.85946 0.0917201 -0.136261)             (9 0.268151 -0.232871)             (8.86703 0.0894477 -0.404185)             (9.15407 0.540333 -0.546744)             (9.15407 0.540333 -0.546744)             (9.31722 0.71132 -0.641443)             (9.58071 1.24315 -0.180905)             (9.64179 1.20085 0.0290989)             (9.33405 0.820534 0.291109)             (8.49877 0.649018 0.410421)             (8.37723 0.703673 0.28612)             (8.37107 0.742173 0.376274)             (8.50216 0.899688 0.257661)             (-1e+300 -1e+300 -1e+300)             (-1e+300 -1e+300 -1e+300)             (-1e+300 -1e+300 -1e+300)             (-1e+300 -1e+300 -1e+300)             (-1e+300 -1e+300 -1e+300)             (-1e+300 -1e+300 -1e+300)             (-1e+300 -1e+300 -1e+300)             (-1e+300 -1e+300 -1e+300)             (-1e+300 -1e+300 -1e+300)             (-1e+300 -1e+300 -1e+300)             (-1e+300 -1e+300 -1e+300)             (-1e+300 -1e+300 -1e+300)             (-1e+300 -1e+300 -1e+300)             (-1e+300 -1e+300 -1e+300)             (-1e+300 -1e+300 -1e+300)             (-1e+300 -1e+300 -1e+300)             (-1e+300 -1e+300 -1e+300)
        5.324             (-1e+300 -1e+300 -1e+300)             (-1e+300 -1e+300 -1e+300)             (-1e+300 -1e+300 -1e+300)             (-1e+300 -1e+300 -1e+300)             (-1e+300 -1e+300 -1e+300)             (-1e+300 -1e+300 -1e+300)             (-1e+300 -1e+300 -1e+300)             (0.0496935 -0.0683409 -0.000589706)             (0.181689 0.0998004 -0.969317)             (2.84593 0.107309 1.30255)             (6.87761 -0.589388 0.55262)             (7.32465 0.632694 0.0805333)             (7.48872 0.764059 0.224381)             (7.57955 0.450345 0.671931)             (7.25161 0.879798 0.55072)             (7.40945 0.669477 0.591575)             (7.79937 0.738152 0.432237)             (8.09549 0.445716 0.440898)             (8.17917 -0.0687477 0.495737)             (8.18239 0.106381 0.297637)             (8.27848 0.182258 0.120197)             (9.09587 0.0178011 -0.250419)             (9.05731 -0.0667682 -0.125384)             (8.67554 -0.0585814 -0.159324)             (8.6054 -0.183969 -0.212409)             (8.95718 0.247924 -0.466068)             (9.03186 0.34304 -0.551339)             (9.05372 0.301829 -0.514829)             (9.11775 0.671398 -0.607655)             (9.11775 0.671398 -0.607655)             (9.32222 0.811233 -0.621307)             (9.70665 1.19561 -0.17431)             (9.73527 1.05363 0.0571621)             (9.51116 0.713278 0.179207)             (8.5381 0.624854 0.348691)             (8.3541 0.683469 0.258523)             (8.33574 0.684219 0.359115)             (8.4208 0.832179 0.226553)             (-1e+300 -1e+300 -1e+300)             (-1e+300 -1e+300 -1e+300)             (-1e+300 -1e+300 -1e+300)             (-1e+300 -1e+300 -1e+300)             (-1e+300 -1e+300 -1e+300)             (-1e+300 -1e+300 -1e+300)             (-1e+300 -1e+300 -1e+300)             (-1e+300 -1e+300 -1e+300)             (-1e+300 -1e+300 -1e+300)             (-1e+300 -1e+300 -1e+300)             (-1e+300 -1e+300 -1e+300)             (-1e+300 -1e+300 -1e+300)             (-1e+300 -1e+300 -1e+300)             (-1e+300 -1e+300 -1e+300)             (-1e+300 -1e+300 -1e+300)             (-1e+300 -1e+300 -1e+300)             (-1e+300 -1e+300 -1e+300)