# Probe 0 (-0.35 0 0.005)
# Probe 1 (-0.35 0 0.0155)
# Probe 2 (-0.35 0 0.02653)
# Probe 3 (-0.35 0 0.0381)
# Probe 4 (-0.35 0 0.05026)
# Probe 5 (-0.35 0 0.06302)
# Probe 6 (-0.35 0 0.07642)
# Probe 7 (-0.35 0 0.08)
# Probe 8 (-0.35 0 0.09049)
# Probe 9 (-0.35 0 0.10527)
# Probe 10 (-0.35 0 0.12078)
# Probe 11 (-0.35 0 0.13707)
# Probe 12 (-0.35 0 0.15417)
# Probe 13 (-0.35 0 0.17213)
# Probe 14 (-0.35 0 0.19099)
# Probe 15 (-0.35 0 0.2)
# Probe 16 (-0.35 0 0.21079)
# Probe 17 (-0.35 0 0.23157)
# Probe 18 (-0.35 0 0.2534)
# Probe 19 (-0.35 0 0.27632)
# Probe 20 (-0.35 0 0.30039)
# Probe 21 (-0.35 0 0.32566)
# Probe 22 (-0.35 0 0.35219)
# Probe 23 (-0.35 0 0.38005)
# Probe 24 (-0.35 0 0.4093)
# Probe 25 (-0.35 0 0.44002)
# Probe 26 (-0.35 0 0.47227)
# Probe 27 (-0.35 0 0.50613)
# Probe 28 (-0.35 0 0.54169)
# Probe 29 (-0.35 0 0.57903)
# Probe 30 (-0.35 0 0.61823)
# Probe 31 (-0.35 0 0.65939)
# Probe 32 (-0.35 0 0.70261)
# Probe 33 (-0.35 0 0.74799)
# Probe 34 (-0.35 0 0.79564)
# Probe 35 (-0.35 0 0.84567)
# Probe 36 (-0.35 0 0.8982)
# Probe 37 (-0.35 0 0.95336)
# Probe 38 (-0.35 0 1.01128)
# Probe 39 (-0.35 0 1.0721)
# Probe 40 (-0.35 0 1.13595)
# Probe 41 (-0.35 0 1.203)
# Probe 42 (-0.35 0 1.2734)
# Probe 43 (-0.35 0 1.34732)
# Probe 44 (-0.35 0 1.42493)
# Probe 45 (-0.35 0 1.50643)
# Probe 46 (-0.35 0 1.592)
# Probe 47 (-0.35 0 1.68185)
# Probe 48 (-0.35 0 1.77619)
# Probe 49 (-0.35 0 1.87525)
# Probe 50 (-0.35 0 1.97927)
# Probe 51 (-0.35 0 2.08848)
# Probe 52 (-0.35 0 2.20315)
# Probe 53 (-0.35 0 2.32356)
# Probe 54 (-0.35 0 2.44999)
#       Probe             0             1             2             3             4             5             6             7             8             9            10            11            12            13            14            15            16            17            18            19            20            21            22            23            24            25            26            27            28            29            30            31            32            33            34            35            36            37            38            39            40            41            42            43            44            45            46            47            48            49            50            51            52            53            54
#        Time
       14.282      -2.66721       -3.1696      -2.88362       -2.8469      -2.89919       -3.2249       -3.3703      -3.45281      -3.66776      -4.03329       -4.3956      -4.29648      -4.61438       -4.9248      -5.08204      -5.21641       -5.2846      -5.35456      -5.58571       -5.7643      -5.76645      -6.28272       -6.4344      -6.52624      -6.52352      -6.73795      -6.91063      -7.20956      -7.45566      -7.45566      -7.84918      -8.10146      -8.06975       -8.0527      -8.19232      -8.31104      -8.34679       -8.4227       -1e+300       -1e+300       -1e+300       -1e+300       -1e+300       -1e+300       -1e+300       -1e+300       -1e+300       -1e+300       -1e+300       -1e+300       -1e+300       -1e+300       -1e+300       -1e+300       -1e+300
       14.284      -5.67126       -5.3005      -5.42793      -5.55571        -5.611      -5.88911      -6.08418      -6.22329      -6.49763      -6.75508      -6.91756      -6.94262      -7.29287      -7.50468      -7.74165      -7.86144      -7.95204      -8.00533      -8.29393      -8.47788      -8.44598      -9.00172      -9.19801      -9.32464      -9.28709      -9.41364      -9.59383      -9.88521       -10.203       -10.203      -10.6199      -10.8265      -10.7666       -10.751      -10.8704      -10.9772      -10.9974      -11.0516       -1e+300       -1e+300       -1e+300       -1e+300       -1e+300       -1e+300       -1e+300       -1e+300       -1e+300       -1e+300       -1e+300       -1e+300       -1e+300       -1e+300       -1e+300       -1e+300       -1e+300
       14.286       2.25603       3.19211       2.37909        2.3111       2.21339       1.92662       1.68399       1.55382       1.37692       1.13758      0.915801      0.755105      0.650752      0.601598      0.131598     0.0446808    -0.0612889     -0.206237     -0.456651     -0.647451     -0.677868      -1.16324      -1.35957      -1.44981      -1.39021      -1.44047      -1.61107      -1.85219      -2.26468      -2.26468      -2.69251      -2.81505      -2.75686      -2.76035      -2.87193      -2.95812      -2.95815      -2.98476       -1e+300       -1e+300       -1e+300       -1e+300       -1e+300       -1e+300       -1e+300       -1e+300       -1e+300       -1e+300       -1e+300       -1e+300       -1e+300       -1e+300       -1e+300       -1e+300       -1e+300
       14.288      -3.99764      -4.00072      -4.57063      -3.90436      -3.97206      -4.24406       -4.4692      -4.57663      -4.72207      -5.00762      -5.33372       -5.5233      -5.49791      -5.79233      -6.09778      -6.16535      -6.22609      -6.42222      -6.60945      -6.83305      -6.97055      -7.40326      -7.60288      -7.73722      -7.69338      -7.72603      -7.89009      -8.12757      -8.57664      -8.57664      -9.08282      -9.18118      -9.15404      -9.19604      -9.35889      -9.43701      -9.44786      -9.46535       -1e+300       -1e+300       -1e+300       -1e+300       -1e+300       -1e+300       -1e+300       -1e+300       -1e+300       -1e+300       -1e+300       -1e+300       -1e+300       -1e+300       -1e+300       -1e+300       -1e+300
        14.29      -4.93802      -5.39883      -5.67234      -4.94774       -4.8779      -5.07616      -5.22883      -5.33364      -5.50047      -5.86044      -6.14938      -6.28463      -6.30707        -6.636      -6.93191      -7.03453      -7.09581      -7.26341      -7.42681      -7.63782      -7.84501      -8.25523      -8.44484      -8.65701      -8.62693      -8.64546      -8.81038      -8.99578       -9.4241       -9.4241      -10.0572      -10.0696      -10.0571      -10.1332      -10.3133      -10.3642      -10.3755      -10.3842       -1e+300       -1e+300       -1e+300       -1e+300       -1e+300       -1e+300       -1e+300       -1e+300       -1e+300       -1e+300       -1e+300       -1e+300       -1e+300       -1e+300       -1e+300       -1e+300       -1e+300
       14.292       8.62214       8.26138       8.30404       8.39942       8.46284       8.28195       8.17374       8.09392       7.78801       7.36128       7.27202       7.16133       7.15614       6.78581       6.54336       6.38139        6.3322       6.17018       5.98058       5.80103       5.60602       5.26786       5.13452       4.89763       4.95133        4.9747       4.82887       4.84372       4.32612       4.32612        3.7427        3.7793       3.81753       3.76186       3.63918       3.64419       3.66435       3.65437       -1e+300       -1e+300       -1e+300       -1e+300       -1e+300       -1e+300       -1e+300       -1e+300       -1e+300       -1e+300       -1e+300       -1e+300       -1e+300       -1e+300       -1e+300       -1e+300       -1e+300
       14.294       4.37509       4.39066       4.18566       4.12675       3.99617       3.70515       3.49587       3.34559       3.10995        2.7947       2.69583       2.59419       2.59951       2.27797       2.10554       1.85913         1.811       1.63871       1.39974       1.20858      0.993252      0.723367      0.640604      0.314449      0.352576      0.371727       0.19765      0.107122     -0.192269     -0.192269     -0.684915     -0.602894     -0.565479     -0.635235     -0.738554     -0.707795     -0.691903     -0.695275       -1e+300       -1e+300       -1e+300       -1e+300       -1e+300       -1e+300       -1e+300       -1e+300       -1e+300       -1e+300       -1e+300       -1e+300       -1e+300       -1e+300       -1e+300       -1e+300       -1e+300
       14.296      -1.76303      -2.09436      -2.20818      -2.10778      -2.39636      -2.73978      -2.98522      -3.08198      -3.27122       -3.6834      -3.87211      -3.94356      -4.01885      -4.10993      -4.28999      -4.58808      -4.67101      -4.84366      -5.12088      -5.33623      -5.60791      -5.83993      -5.88025      -6.30353      -6.32163      -6.31213      -6.55277      -6.69378      -6.94023      -6.94023      -7.34798      -7.28985      -7.29692      -7.42539      -7.55551      -7.51852      -7.52201       -7.5494       -1e+300       -1e+300       -1e+300       -1e+300       -1e+300       -1e+300       -1e+300       -1e+300       -1e+300       -1e+300       -1e+300       -1e+300       -1e+300       -1e+300       -1e+300       -1e+300       -1e+300
       14.298       4.04158        3.3058       3.20257       3.35525       3.20515       2.92882       2.77309       2.69269       2.48832       2.18528       1.83473       1.67033        1.4556       1.53321        1.3279       1.07281      0.983457      0.790527      0.497072      0.271373    -0.0173017     -0.188021     -0.191237     -0.506682     -0.547806     -0.624445      -0.86754      -1.04911      -1.14907      -1.14907      -1.50476         -1.43      -1.44357      -1.57318      -1.66754      -1.61445      -1.61472      -1.63345       -1e+300       -1e+300       -1e+300       -1e+300       -1e+300       -1e+300       -1e+300       -1e+300       -1e+300       -1e+300       -1e+300       -1e+300       -1e+300       -1e+300       -1e+300       -1e+300       -1e+300
         14.3       2.73259       2.00674       2.03957       2.44678       2.34939       2.11974       2.00583       1.92171       1.73454       1.37768      0.977557      0.779048      0.690452      0.631726      0.448929      0.274036      0.179008     -0.055371     -0.366743     -0.590199     -0.899248      -1.00846     -0.981236       -1.2202      -1.31547       -1.5118      -1.75591      -2.00975      -1.95398      -1.95398      -2.23103       -2.1717      -2.21831      -2.37841      -2.47371      -2.42147      -2.43538      -2.46281       -1e+300       -1e+300       -1e+300       -1e+300       -1e+300       -1e+300       -1e+300       -1e+300       -1e+300       -1e+300       -1e+300       -1e+300       -1e+300       -1e+300       -1e+300       -1e+300       -1e+300
       14.302      -3.25195      -3.73906      -3.66443      -3.16356        -3.271      -3.50649      -3.61449      -3.68678      -3.89974      -4.27704      -4.58495       -4.7823      -4.95969      -5.03642      -5.15729      -5.31757      -5.44856      -5.75019      -6.03779      -6.23099      -6.55985      -6.63211      -6.59276      -6.76355      -6.90632      -7.25006      -7.48294      -7.83293      -7.58832      -7.58832      -7.80894      -7.78363      -7.86316      -8.03732      -8.13549      -8.08792      -8.11416      -8.14075       -1e+300       -1e+300       -1e+300       -1e+300       -1e+300       -1e+300       -1e+300       -1e+300       -1e+300       -1e+300       -1e+300       -1e+300       -1e+300       -1e+300       -1e+300       -1e+300       -1e+300
       14.304       -6.9138      -6.91499      -6.90199      -6.91844      -7.01698      -7.31821      -7.44427      -7.51728      -7.74859      -8.06845      -8.30218      -8.51748      -8.76934      -8.83865      -8.96981      -9.15177      -9.31025      -9.63057      -9.89674      -10.0242      -10.3351      -10.4077       -10.373      -10.5371      -10.7036      -11.1692      -11.3891      -11.8101      -11.3655      -11.3655      -11.6266      -11.6333       -11.712      -11.8862      -11.9767      -11.9317      -11.9671      -11.9879       -1e+300       -1e+300       -1e+300       -1e+300       -1e+300       -1e+300       -1e+300       -1e+300       -1e+300       -1e+300       -1e+300       -1e+300       -1e+300       -1e+300       -1e+300       -1e+300       -1e+300
       14.306      -2.05358      -1.52182      -1.81282      -1.98313      -2.14336      -2.48568      -2.63217      -2.72421      -2.99049      -3.12931       -3.3588      -3.51892      -3.86253      -4.00875      -4.19636      -4.36467      -4.52976      -4.82536      -4.98918      -5.07782      -5.33959      -5.44795      -5.40678      -5.57996      -5.76652      -6.29775      -6.48978      -6.92359      -6.34962      -6.34962      -6.65195      -6.68104      -6.76196       -6.9145      -7.00518      -6.94579      -6.99361      -7.00632       -1e+300       -1e+300       -1e+300       -1e+300       -1e+300       -1e+300       -1e+300       -1e+300       -1e+300       -1e+300       -1e+300       -1e+300       -1e+300       -1e+300       -1e+300       -1e+300       -1e+300
       14.308       2.53444        3.1365       2.74103       2.76796       2.60039       2.22294       2.05222       1.95113       1.81392       1.63433       1.44126       1.27116      0.927207      0.711322      0.475121      0.350934      0.159418    -0.0626367     -0.073529     -0.160613     -0.389158     -0.530025     -0.514051     -0.640331     -0.880523      -1.46245      -1.62751      -2.04639      -1.35882      -1.35882       -1.7342       -1.8061      -1.85292      -1.95178      -2.04656      -2.00363      -2.05371      -2.05763       -1e+300       -1e+300       -1e+300       -1e+300       -1e+300       -1e+300       -1e+300       -1e+300       -1e+300       -1e+300       -1e+300       -1e+300       -1e+300       -1e+300       -1e+300       -1e+300       -1e+300
        14.31     -0.459158      0.115702     -0.182429    -0.0958501     -0.247752     -0.644178     -0.805963     -0.863869     -0.972649      -1.16098      -1.35986      -1.58682      -1.87808      -2.18115      -2.38762      -2.53151      -2.72463      -2.81339      -2.82526      -2.90185      -3.09212      -3.19892      -3.24847      -3.42864      -3.72324      -4.35387      -4.49573      -4.88504      -4.17617      -4.17617       -4.5971      -4.68769      -4.71892       -4.7898      -4.89936      -4.87385       -4.9264      -4.92622       -1e+300       -1e+300       -1e+300       -1e+300       -1e+300       -1e+300       -1e+300       -1e+300       -1e+300       -1e+300       -1e+300       -1e+300       -1e+300       -1e+300       -1e+300       -1e+300       -1e+300
       14.312       3.45038       3.51923       3.35239       3.30314       3.15891       2.78068       2.65064       2.59774       2.47801       2.29923       2.10168       1.89192       1.66233       1.30263       1.07925      0.917739      0.768228      0.737982        0.5571      0.551362      0.467949      0.429387      0.318404     0.0900138     -0.223774     -0.839452     -0.936535      -1.21838     -0.531304     -0.531304     -0.921279      -1.03384      -1.01337      -1.01336      -1.09597       -1.0624      -1.10857      -1.09455       -1e+300       -1e+300       -1e+300       -1e+300       -1e+300       -1e+300       -1e+300       -1e+300       -1e+300       -1e+300       -1e+300       -1e+300       -1e+300       -1e+300       -1e+300       -1e+300       -1e+300
       14.314       1.15762       0.32231   -0.00668364    -0.0329809     -0.175104     -0.548113     -0.664624     -0.722417     -0.838443      -1.00518      -1.19674      -1.42876      -1.64268      -1.92162      -2.11997      -2.30677      -2.42227       -2.6909      -3.18527      -2.98715      -2.92543      -2.94189      -3.06825      -3.42255      -3.76533      -4.38637      -4.47168      -4.72433      -4.09302      -4.09302      -4.49575      -4.64424      -4.58661      -4.60008      -4.69691      -4.68266      -4.74818      -4.73478       -1e+300       -1e+300       -1e+300       -1e+300       -1e+300       -1e+300       -1e+300       -1e+300       -1e+300       -1e+300       -1e+300       -1e+300       -1e+300       -1e+300       -1e+300       -1e+300       -1e+300
       14.316      -1.17251       -1.4297      -1.77452      -1.79877      -1.95944      -2.36179      -2.45078      -2.48994      -2.56518      -2.67774      -2.85723      -3.13237      -3.33251      -3.53255      -3.67361      -3.86111      -4.06025      -4.64193       -5.2535      -4.89805      -4.75365      -4.79086      -4.88044      -5.30479      -5.66383      -6.23857      -6.32446      -6.52034      -5.95009      -5.95009      -6.39914      -6.56516      -6.45276        -6.482      -6.62009      -6.60276      -6.68221      -6.66481       -1e+300       -1e+300       -1e+300       -1e+300       -1e+300       -1e+300       -1e+300       -1e+300       -1e+300       -1e+300       -1e+300       -1e+300       -1e+300       -1e+300       -1e+300       -1e+300       -1e+300
       14.318       3.13125       2.67642       2.32535       2.22782       2.05202       1.69372       1.67309       1.66842       1.64885       1.58068       1.44384       1.18987      0.973748      0.708159      0.462002      0.337078       0.12294     -0.370878     -0.819718     -0.569569      -0.51467     -0.627983     -0.672795      -1.05717      -1.41309      -1.86595      -1.94797      -2.05652      -1.46926      -1.46926      -2.04127      -2.20689      -1.98385      -2.03579      -2.14768      -2.10589      -2.20115      -2.17401       -1e+300       -1e+300       -1e+300       -1e+300       -1e+300       -1e+300       -1e+300       -1e+300       -1e+300       -1e+300       -1e+300       -1e+300       -1e+300       -1e+300       -1e+300       -1e+300       -1e+300
        14.32       6.59924       6.02745       5.68342       5.42278       5.23289       4.93248       4.98589       5.04639       5.11957       5.07374       4.94065       4.71389       4.45746       4.13387       3.75892       3.64363       3.57749       3.35137       2.94005       3.04251       2.88999       2.64675       2.64523       2.26313       1.94049       1.60714       1.51046       1.47098       1.89217       1.89217       1.34378       1.25292       1.47866       1.41725       1.36026       1.35382        1.2697       1.29956       -1e+300       -1e+300       -1e+300       -1e+300       -1e+300       -1e+300       -1e+300       -1e+300       -1e+300       -1e+300       -1e+300       -1e+300       -1e+300       -1e+300       -1e+300       -1e+300       -1e+300
       14.322     -0.803327      -1.31934      -1.74271      -1.99195      -2.16751      -2.37654      -2.44206      -2.37271      -2.24223      -2.24865      -2.39347      -2.63426      -2.89605      -3.21154       -3.5136      -3.69823      -3.81384      -4.06368      -4.37065      -4.32849      -4.59984      -4.93041      -4.93458      -5.37383      -5.66146      -5.94683      -6.07215      -6.09994      -5.70681      -5.70681      -6.33833      -6.39702       -6.1091      -6.22914       -6.3058      -6.32098      -6.41613      -6.37314       -1e+300       -1e+300       -1e+300       -1e+300       -1e+300       -1e+300       -1e+300       -1e+300       -1e+300       -1e+300       -1e+300       -1e+300       -1e+300       -1e+300       -1e+300       -1e+300       -1e+300
       14.324      -6.14216      -6.41989      -6.86884      -6.98229      -6.99025      -7.10408      -7.26386      -7.30675      -7.25726      -7.23847      -7.35734      -7.62609      -7.89329      -8.18852      -8.47066      -8.64001      -8.78188      -9.10432      -9.17991      -9.43088      -9.73195      -10.0564      -10.1141      -10.5339      -10.7459      -11.0636      -11.1597      -11.1714      -10.8355      -10.8355      -11.4777       -11.483      -11.1652      -11.3517      -11.4117      -11.4173      -11.5182      -11.4618       -1e+300       -1e+300       -1e+300       -1e+300       -1e+300       -1e+300       -1e+300       -1e+300       -1e+300       -1e+300       -1e+300       -1e+300       -1e+300       -1e+300       -1e+300       -1e+300       -1e+300
       14.326       8.55961       8.32662       8.18776       7.94007        8.1316       7.78144       7.76319       7.80797       7.77895        7.7091       7.56517        7.2725       6.99212       6.65555       6.44228       6.30718       6.18488       5.92054       5.68957       5.47633       5.22074       4.91473       4.85086       4.59906       4.50783       4.29193       4.17315       4.22731       4.49231       4.49231       3.88745       4.01555       4.39602       4.22302       4.24194       4.26555       4.21381       4.31524       -1e+300       -1e+300       -1e+300       -1e+300       -1e+300       -1e+300       -1e+300       -1e+300       -1e+300       -1e+300       -1e+300       -1e+300       -1e+300       -1e+300       -1e+300       -1e+300       -1e+300
       14.328       4.76445       4.67568       4.62751       4.48064       4.54672       4.18301       4.03735       4.06003       4.09341       3.92706       3.70398       3.41106       3.02575       2.66894       2.52867       2.40176       2.28613       2.05154       1.77378       1.55768       1.31926      0.923078      0.885555       0.64669      0.613664      0.404437      0.264213      0.284824       0.46496       0.46496     -0.139513     0.0328915      0.434786      0.219203      0.215441      0.232671      0.178077      0.276372       -1e+300       -1e+300       -1e+300       -1e+300       -1e+300       -1e+300       -1e+300       -1e+300       -1e+300       -1e+300       -1e+300       -1e+300       -1e+300       -1e+300       -1e+300       -1e+300       -1e+300
        14.33      -1.98552      -1.96328      -2.00102      -2.04229       -2.1265      -2.38748        -2.517      -2.57719      -2.66475      -2.86222      -3.09409       -3.3468      -3.69399      -4.12419      -4.33333      -4.42215       -4.5388      -4.76443      -5.03554      -5.28694      -5.51267      -5.95569      -5.99178      -6.28545      -6.30902      -6.49635      -6.66457      -6.68221      -6.54488      -6.54488      -7.12224      -6.97419      -6.60749      -6.89546      -6.89915       -6.8924      -6.91911       -6.8124       -1e+300       -1e+300       -1e+300       -1e+300       -1e+300       -1e+300       -1e+300       -1e+300       -1e+300       -1e+300       -1e+300       -1e+300       -1e+300       -1e+300       -1e+300       -1e+300       -1e+300
       14.332      0.748518      0.707111      0.630805      0.795835      0.698086      0.396982      0.214368      0.131407    -0.0540039     -0.265799     -0.461134     -0.669753     -0.945257      -1.56985      -1.80549       -1.8663      -1.96579      -2.18698      -2.47348       -2.7236      -2.88107       -3.2649      -3.32806      -3.61954      -3.65141      -3.74576      -3.89968      -3.90494      -3.79549      -3.79549      -4.34858      -4.12959      -3.78543      -4.11363      -4.05158      -4.01367      -3.99745      -3.89269       -1e+300       -1e+300       -1e+300       -1e+300       -1e+300       -1e+300       -1e+300       -1e+300       -1e+300       -1e+300       -1e+300       -1e+300       -1e+300       -1e+300       -1e+300       -1e+300       -1e+300
       14.334       1.23197      0.995056      0.855183       1.02931       1.00426      0.643438      0.499975      0.402521      0.191746    -0.0477255     -0.244498     -0.361745     -0.763132      -1.38997      -1.67766      -1.79112      -1.89677      -2.12394      -2.44302      -2.64334      -2.75941      -3.06622      -3.17047      -3.47445       -3.5389      -3.58342      -3.71494      -3.74405      -3.72589      -3.72589       -4.1842      -3.98015      -3.77677       -4.0556      -3.98014      -3.91999      -3.90799      -3.79365       -1e+300       -1e+300       -1e+300       -1e+300       -1e+300       -1e+300       -1e+300       -1e+300       -1e+300       -1e+300       -1e+300       -1e+300       -1e+300       -1e+300       -1e+300       -1e+300       -1e+300
       14.336      -1.39901      -1.37044       -1.5303       -1.4632       -1.6181      -1.94078      -1.95625      -2.02162      -2.18862      -2.40454      -2.67737      -2.91519      -3.42915      -4.01091      -4.33945       -4.4976      -4.63105      -4.73251      -4.98183      -5.10283      -5.27882      -5.48048      -5.67428      -5.94539      -6.04556      -6.09632      -6.19943      -6.24243      -6.25943      -6.25943      -6.63605      -6.50215       -6.3816       -6.7082      -6.60833      -6.57044      -6.51543      -6.43673       -1e+300       -1e+300       -1e+300       -1e+300       -1e+300       -1e+300       -1e+300       -1e+300       -1e+300       -1e+300       -1e+300       -1e+300       -1e+300       -1e+300       -1e+300       -1e+300       -1e+300
       14.338       1.61444        1.9577       1.80256       1.76008       1.47757       1.35222       1.32341       1.26137        1.0924      0.853411      0.548432      0.117516     -0.383871     -0.966253      -1.26077      -1.35196      -1.35759      -1.29588      -1.45621      -1.63691      -1.92505      -2.04589      -2.30622      -2.47792      -2.59321      -2.66367      -2.70277      -2.71126      -2.72451      -2.72451      -3.05963      -2.98258      -2.94303       -3.1888      -3.01054      -2.96152      -2.88911      -2.82817       -1e+300       -1e+300       -1e+300       -1e+300       -1e+300       -1e+300       -1e+300       -1e+300       -1e+300       -1e+300       -1e+300       -1e+300       -1e+300       -1e+300       -1e+300       -1e+300       -1e+300
        14.34       1.47389       1.63155       1.44929       1.43015       1.25319       1.03623       0.95535      0.891773      0.725694      0.422196     0.0690667     -0.405451     -0.937202      -1.44301      -1.53831       -1.4788      -1.42371      -1.50691      -1.66788       -1.9228      -2.21665      -2.39188      -2.62451      -2.80733      -2.93555      -3.03038      -3.03202      -2.99927      -2.97742      -2.97742      -3.29899      -3.28953      -3.32855      -3.50849      -3.24586      -3.18817      -3.11594       -3.0746       -1e+300       -1e+300       -1e+300       -1e+300       -1e+300       -1e+300       -1e+300       -1e+300       -1e+300       -1e+300       -1e+300       -1e+300       -1e+300       -1e+300       -1e+300       -1e+300       -1e+300
       14.342      -2.53882      -2.58438      -2.74768      -2.71567      -2.86447       -3.1581      -3.28987      -3.35873      -3.51302      -3.82762      -4.21309      -4.69196      -5.16095      -5.54932      -5.54215       -5.4772      -5.42992      -5.66141      -5.85627      -6.21467      -6.39611      -6.65521      -6.83486      -7.08877      -7.23561      -7.34029      -7.33153      -7.26485      -7.23441      -7.23441      -7.47769       -7.5229      -7.60463      -7.79537      -7.43653      -7.37236       -7.3075      -7.28822       -1e+300       -1e+300       -1e+300       -1e+300       -1e+300       -1e+300       -1e+300       -1e+300       -1e+300       -1e+300       -1e+300       -1e+300       -1e+300       -1e+300       -1e+300       -1e+300       -1e+300
       14.344       3.24239       3.22245       3.03275       3.07841       2.96654       2.66089       2.51757       2.45449       2.29581       1.98703       1.62468       1.18687      0.813937      0.534054      0.504901       0.45518      0.442592      0.156951     -0.124491     -0.445581     -0.538876     -0.753689     -0.924158      -1.14877       -1.2907      -1.34606      -1.31963      -1.18749      -1.14769      -1.14769      -1.31462      -1.41637      -1.52096      -1.64611      -1.17944      -1.09208      -1.02303      -1.01769       -1e+300       -1e+300       -1e+300       -1e+300       -1e+300       -1e+300       -1e+300       -1e+300       -1e+300       -1e+300       -1e+300       -1e+300       -1e+300       -1e+300       -1e+300       -1e+300       -1e+300
       14.346        9.0892       8.96014       8.75012       8.78292       8.70616       8.43987       8.29948       8.23052       8.07625       7.75008       7.45401       7.11291       6.81194       6.58137       6.60264        6.6508       6.42557       6.00502       5.69863       5.29893        5.2037       5.00257       4.79413       4.62425        4.4886       4.46464       4.51313       4.66906       4.69431       4.69431       4.53928        4.3912       4.26466       4.17337       4.68735       4.80392       4.86716       4.85836       -1e+300       -1e+300       -1e+300       -1e+300       -1e+300       -1e+300       -1e+300       -1e+300       -1e+300       -1e+300       -1e+300       -1e+300       -1e+300       -1e+300       -1e+300       -1e+300       -1e+300
       14.348      -0.54561     -0.835301      -1.11707      -1.01208      -1.06012      -1.30326      -1.42265      -1.49637      -1.65853      -1.96256      -2.23388      -2.48897      -2.75684      -2.98437      -2.96617      -2.96759      -3.35629      -3.77341      -4.10057      -4.50361      -4.65419      -4.96941      -5.23345      -5.44492      -5.59513      -5.66453      -5.61445      -5.49983      -5.47273      -5.47273       -5.6455      -5.83528      -6.08344      -6.20845      -5.76175      -5.64166       -5.5967      -5.63042       -1e+300       -1e+300       -1e+300       -1e+300       -1e+300       -1e+300       -1e+300       -1e+300       -1e+300       -1e+300       -1e+300       -1e+300       -1e+300       -1e+300       -1e+300       -1e+300       -1e+300
        14.35      -5.61371      -5.80265      -6.02165      -5.91978       -5.9517      -6.18499      -6.27278      -6.33328      -6.47999      -6.74184      -6.99484      -7.21876      -7.48178       -7.7185      -7.81184      -7.99513      -8.27834      -8.64508      -9.02781      -9.36037      -9.57316      -9.92236      -10.2091      -10.4559      -10.6017      -10.6938      -10.6164      -10.5273      -10.4916      -10.4916      -10.6524      -10.9482      -11.1458      -11.2797      -10.8568      -10.7266      -10.6838       -10.724       -1e+300       -1e+300       -1e+300       -1e+300       -1e+300       -1e+300       -1e+300       -1e+300       -1e+300       -1e+300       -1e+300       -1e+300       -1e+300       -1e+300       -1e+300       -1e+300       -1e+300