# Probe 0 (-0.35 0 0.005)
# Probe 1 (-0.35 0 0.0155)
# Probe 2 (-0.35 0 0.02653)
# Probe 3 (-0.35 0 0.0381)
# Probe 4 (-0.35 0 0.05026)
# Probe 5 (-0.35 0 0.06302)
# Probe 6 (-0.35 0 0.07642)
# Probe 7 (-0.35 0 0.08)
# Probe 8 (-0.35 0 0.09049)
# Probe 9 (-0.35 0 0.10527)
# Probe 10 (-0.35 0 0.12078)
# Probe 11 (-0.35 0 0.13707)
# Probe 12 (-0.35 0 0.15417)
# Probe 13 (-0.35 0 0.17213)
# Probe 14 (-0.35 0 0.19099)
# Probe 15 (-0.35 0 0.2)
# Probe 16 (-0.35 0 0.21079)
# Probe 17 (-0.35 0 0.23157)
# Probe 18 (-0.35 0 0.2534)
# Probe 19 (-0.35 0 0.27632)
# Probe 20 (-0.35 0 0.30039)
# Probe 21 (-0.35 0 0.32566)
# Probe 22 (-0.35 0 0.35219)
# Probe 23 (-0.35 0 0.38005)
# Probe 24 (-0.35 0 0.4093)
# Probe 25 (-0.35 0 0.44002)
# Probe 26 (-0.35 0 0.47227)
# Probe 27 (-0.35 0 0.50613)
# Probe 28 (-0.35 0 0.54169)
# Probe 29 (-0.35 0 0.57903)
# Probe 30 (-0.35 0 0.61823)
# Probe 31 (-0.35 0 0.65939)
# Probe 32 (-0.35 0 0.70261)
# Probe 33 (-0.35 0 0.74799)
# Probe 34 (-0.35 0 0.79564)
# Probe 35 (-0.35 0 0.84567)
# Probe 36 (-0.35 0 0.8982)
# Probe 37 (-0.35 0 0.95336)
# Probe 38 (-0.35 0 1.01128)
# Probe 39 (-0.35 0 1.0721)
# Probe 40 (-0.35 0 1.13595)
# Probe 41 (-0.35 0 1.203)
# Probe 42 (-0.35 0 1.2734)
# Probe 43 (-0.35 0 1.34732)
# Probe 44 (-0.35 0 1.42493)
# Probe 45 (-0.35 0 1.50643)
# Probe 46 (-0.35 0 1.592)
# Probe 47 (-0.35 0 1.68185)
# Probe 48 (-0.35 0 1.77619)
# Probe 49 (-0.35 0 1.87525)
# Probe 50 (-0.35 0 1.97927)
# Probe 51 (-0.35 0 2.08848)
# Probe 52 (-0.35 0 2.20315)
# Probe 53 (-0.35 0 2.32356)
# Probe 54 (-0.35 0 2.44999)
#       Probe             0             1             2             3             4             5             6             7             8             9            10            11            12            13            14            15            16            17            18            19            20            21            22            23            24            25            26            27            28            29            30            31            32            33            34            35            36            37            38            39            40            41            42            43            44            45            46            47            48            49            50            51            52            53            54
#        Time
       14.282             (3.50046 -0.627276 0.27708)             (4.86586 0.862542 -0.253551)             (6.50282 0.137547 -0.0865842)             (6.98993 0.303622 -0.152521)             (6.75555 0.233242 -0.174924)             (6.93998 0.333157 -0.223152)             (7.116 0.762 -0.21471)             (7.0478 0.709492 -0.305145)             (7.06241 0.669602 -0.19635)             (7.1813 0.275764 -0.316792)             (7.28758 -0.014415 -0.569936)             (7.79873 -0.0895188 -0.435706)             (7.53843 0.043254 -0.218919)             (7.25516 0.603706 0.111159)             (7.55113 0.542528 0.0794737)             (7.77977 0.82581 0.039028)             (7.99498 0.965715 0.0419004)             (8.03062 0.570027 -0.384539)             (7.98985 0.392811 -0.213852)             (7.76861 0.183864 0.212287)             (8.0574 0.204665 -0.380976)             (7.76957 0.051057 -0.991683)             (7.78335 0.275557 -1.02478)             (8.10053 0.406444 -0.909997)             (8.29365 0.407407 -0.549156)             (8.54922 0.18095 -0.196632)             (8.43385 -0.0819637 0.0168419)             (7.9701 -0.320141 0.0474265)             (7.81893 0.467946 0.165913)             (7.81893 0.467946 0.165913)             (8.08471 0.433908 0.313744)             (8.04294 -0.218193 0.29204)             (7.65831 -0.686342 0.233507)             (8.22014 -0.674585 0.289321)             (8.6951 -0.525622 0.258938)             (8.66704 -0.0252831 0.0817925)             (9.07579 0.163923 -0.356108)             (8.69049 0.105408 -0.262973)             (-1e+300 -1e+300 -1e+300)             (-1e+300 -1e+300 -1e+300)             (-1e+300 -1e+300 -1e+300)             (-1e+300 -1e+300 -1e+300)             (-1e+300 -1e+300 -1e+300)             (-1e+300 -1e+300 -1e+300)             (-1e+300 -1e+300 -1e+300)             (-1e+300 -1e+300 -1e+300)             (-1e+300 -1e+300 -1e+300)             (-1e+300 -1e+300 -1e+300)             (-1e+300 -1e+300 -1e+300)             (-1e+300 -1e+300 -1e+300)             (-1e+300 -1e+300 -1e+300)             (-1e+300 -1e+300 -1e+300)             (-1e+300 -1e+300 -1e+300)             (-1e+300 -1e+300 -1e+300)             (-1e+300 -1e+300 -1e+300)
       14.284             (3.58953 -0.299604 0.338005)             (4.80752 0.999428 -0.290428)             (6.32195 0.126759 -0.434803)             (6.90147 0.158489 -0.108803)             (6.67366 0.0948813 -0.0973111)             (6.82734 0.537611 -0.01639)             (6.91778 0.769706 -0.271924)             (6.90658 0.706798 -0.368836)             (7.00822 0.557429 -0.205835)             (6.93067 -0.206559 -0.188262)             (7.02412 -0.522769 -0.341758)             (7.3008 0.306766 -0.0584529)             (7.38679 0.83675 0.081762)             (7.22993 0.960588 0.0496331)             (7.87839 0.781319 0.169295)             (8.0553 0.780768 0.13334)             (8.03268 0.844973 0.140191)             (7.88529 0.545118 -0.0872614)             (7.96147 0.498023 -0.354615)             (7.75556 0.195104 -0.0281963)             (7.74067 0.202269 -0.487936)             (7.88586 0.180139 -1.06447)             (7.93488 0.322599 -1.16918)             (8.09885 0.348559 -0.982736)             (8.21595 0.357161 -0.608287)             (8.33268 0.181931 -0.255921)             (8.26604 -0.0668485 -0.0392076)             (7.96616 -0.378984 0.171439)             (7.78954 0.413144 0.197688)             (7.78954 0.413144 0.197688)             (7.98792 0.319784 0.328596)             (7.97163 -0.345994 0.254079)             (7.65957 -0.777931 0.194452)             (8.22125 -0.615901 0.314586)             (8.57361 -0.580304 0.309414)             (8.56341 -0.120531 0.104418)             (9.02057 0.100252 -0.351358)             (8.6505 0.0587104 -0.28568)             (-1e+300 -1e+300 -1e+300)             (-1e+300 -1e+300 -1e+300)             (-1e+300 -1e+300 -1e+300)             (-1e+300 -1e+300 -1e+300)             (-1e+300 -1e+300 -1e+300)             (-1e+300 -1e+300 -1e+300)             (-1e+300 -1e+300 -1e+300)             (-1e+300 -1e+300 -1e+300)             (-1e+300 -1e+300 -1e+300)             (-1e+300 -1e+300 -1e+300)             (-1e+300 -1e+300 -1e+300)             (-1e+300 -1e+300 -1e+300)             (-1e+300 -1e+300 -1e+300)             (-1e+300 -1e+300 -1e+300)             (-1e+300 -1e+300 -1e+300)             (-1e+300 -1e+300 -1e+300)             (-1e+300 -1e+300 -1e+300)
       14.286             (3.58339 0.143478 0.303922)             (5.33491 0.0857614 -0.178591)             (6.0428 0.309964 -0.344602)             (6.73427 0.12186 0.0635016)             (6.60536 0.0975603 0.0113356)             (6.66293 0.617652 -0.00289785)             (6.75049 0.646319 -0.16512)             (6.86408 0.559543 -0.126365)             (7.05902 0.277025 -0.0426794)             (6.73577 -0.37091 -0.0724823)             (6.95846 -0.59269 -0.0769173)             (7.14724 0.940751 -0.0867649)             (7.68515 0.990345 -0.1335)             (7.73308 0.693471 0.0184853)             (7.92117 0.952074 -0.0140702)             (7.90087 0.947443 -0.0751777)             (8.03801 0.766087 -0.171043)             (7.45031 0.616949 0.0161073)             (7.89806 0.653852 -0.444377)             (7.68564 0.270339 -0.363269)             (7.51439 0.269122 -0.654789)             (7.97601 0.235919 -1.08311)             (8.02507 0.293681 -1.22688)             (8.01727 0.281571 -0.973541)             (8.09724 0.378674 -0.6264)             (8.1381 0.291938 -0.275932)             (8.13386 0.0745795 -0.10421)             (7.95355 -0.342168 0.323883)             (7.75182 0.341289 0.254495)             (7.75182 0.341289 0.254495)             (7.90169 0.197329 0.349789)             (7.91159 -0.455219 0.224666)             (7.68729 -0.839017 0.173623)             (8.21672 -0.550376 0.353447)             (8.46896 -0.624556 0.365038)             (8.47069 -0.216118 0.142873)             (8.96277 0.0420141 -0.325056)             (8.61036 0.0180066 -0.304715)             (-1e+300 -1e+300 -1e+300)             (-1e+300 -1e+300 -1e+300)             (-1e+300 -1e+300 -1e+300)             (-1e+300 -1e+300 -1e+300)             (-1e+300 -1e+300 -1e+300)             (-1e+300 -1e+300 -1e+300)             (-1e+300 -1e+300 -1e+300)             (-1e+300 -1e+300 -1e+300)             (-1e+300 -1e+300 -1e+300)             (-1e+300 -1e+300 -1e+300)             (-1e+300 -1e+300 -1e+300)             (-1e+300 -1e+300 -1e+300)             (-1e+300 -1e+300 -1e+300)             (-1e+300 -1e+300 -1e+300)             (-1e+300 -1e+300 -1e+300)             (-1e+300 -1e+300 -1e+300)             (-1e+300 -1e+300 -1e+300)
       14.288             (3.28179 0.379478 0.102658)             (5.26222 -0.713917 -0.190273)             (6.59992 0.606955 -0.164379)             (6.74617 0.284261 -0.0141302)             (6.72779 0.305717 0.0969295)             (6.49359 0.516854 0.0555611)             (6.72351 0.550095 0.0226928)             (6.90561 0.341042 0.0448967)             (7.03724 0.00748292 0.0631798)             (6.68118 -0.412449 0.202219)             (6.95982 -0.345716 0.283732)             (7.25029 0.765643 0.0192873)             (7.69852 0.770031 -0.319206)             (7.97673 0.213387 -0.218186)             (7.8232 0.684568 -0.36212)             (7.70534 0.796659 -0.16196)             (7.68259 0.844528 -0.0684666)             (7.41051 0.689934 -0.0616924)             (7.89646 0.785514 -0.468929)             (7.60627 0.415085 -0.614946)             (7.4498 0.42277 -0.677439)             (7.96738 0.195194 -1.05335)             (8.03619 0.206452 -1.18661)             (7.8787 0.256051 -0.899724)             (7.959 0.496486 -0.586976)             (7.95195 0.471129 -0.239997)             (8.00552 0.311799 -0.164216)             (7.90138 -0.203756 0.464696)             (7.69293 0.254722 0.332553)             (7.69293 0.254722 0.332553)             (7.81744 0.0740152 0.37582)             (7.85183 -0.54623 0.205289)             (7.72301 -0.871622 0.171871)             (8.18636 -0.487101 0.402067)             (8.3705 -0.652613 0.420791)             (8.37603 -0.303213 0.194309)             (8.88297 -0.00657107 -0.278256)             (8.55209 -0.0126521 -0.318073)             (-1e+300 -1e+300 -1e+300)             (-1e+300 -1e+300 -1e+300)             (-1e+300 -1e+300 -1e+300)             (-1e+300 -1e+300 -1e+300)             (-1e+300 -1e+300 -1e+300)             (-1e+300 -1e+300 -1e+300)             (-1e+300 -1e+300 -1e+300)             (-1e+300 -1e+300 -1e+300)             (-1e+300 -1e+300 -1e+300)             (-1e+300 -1e+300 -1e+300)             (-1e+300 -1e+300 -1e+300)             (-1e+300 -1e+300 -1e+300)             (-1e+300 -1e+300 -1e+300)             (-1e+300 -1e+300 -1e+300)             (-1e+300 -1e+300 -1e+300)             (-1e+300 -1e+300 -1e+300)             (-1e+300 -1e+300 -1e+300)
        14.29             (2.90702 0.399332 0.0240105)             (4.65626 -0.440593 -0.131912)             (6.32434 0.430855 0.00189774)             (6.93796 0.444443 -0.0805526)             (6.88242 0.567248 0.142618)             (6.27922 0.390415 0.0445104)             (6.72384 0.367678 -0.0119415)             (6.90814 -0.00424584 -0.0432612)             (7.14447 -0.355148 -0.0166138)             (6.8007 -0.413503 0.395942)             (6.90702 -0.0087348 0.418145)             (7.01682 0.525093 0.231632)             (7.48363 0.828327 -0.0918408)             (7.51945 0.0890148 -0.615131)             (7.9183 0.494705 -0.387986)             (7.87475 0.752499 -0.163116)             (7.64691 0.9309 0.0118564)             (7.55116 0.838495 -0.112768)             (7.90895 0.811382 -0.401217)             (7.6265 0.593711 -0.637711)             (7.49242 0.635036 -0.521591)             (7.89445 0.168567 -0.923307)             (7.98645 0.115788 -1.06506)             (7.73264 0.291747 -0.781883)             (7.83281 0.688462 -0.481544)             (7.77324 0.650575 -0.137203)             (7.86598 0.572955 -0.186553)             (7.81028 0.0208542 0.548009)             (7.62162 0.157431 0.422851)             (7.62162 0.157431 0.422851)             (7.74464 -0.044783 0.401333)             (7.80101 -0.619969 0.193679)             (7.76865 -0.878993 0.185069)             (8.13558 -0.432863 0.453116)             (8.28886 -0.659269 0.46974)             (8.29002 -0.373551 0.251742)             (8.7878 -0.0419711 -0.21615)             (8.4829 -0.030358 -0.324503)             (-1e+300 -1e+300 -1e+300)             (-1e+300 -1e+300 -1e+300)             (-1e+300 -1e+300 -1e+300)             (-1e+300 -1e+300 -1e+300)             (-1e+300 -1e+300 -1e+300)             (-1e+300 -1e+300 -1e+300)             (-1e+300 -1e+300 -1e+300)             (-1e+300 -1e+300 -1e+300)             (-1e+300 -1e+300 -1e+300)             (-1e+300 -1e+300 -1e+300)             (-1e+300 -1e+300 -1e+300)             (-1e+300 -1e+300 -1e+300)             (-1e+300 -1e+300 -1e+300)             (-1e+300 -1e+300 -1e+300)             (-1e+300 -1e+300 -1e+300)             (-1e+300 -1e+300 -1e+300)             (-1e+300 -1e+300 -1e+300)
       14.292             (2.71502 0.374972 -0.00175474)             (4.69359 -0.118362 0.453084)             (5.73315 0.298394 0.572861)             (6.83926 0.333684 0.243404)             (6.73841 0.599531 0.177715)             (6.11501 0.367509 -0.112706)             (6.69279 0.0290421 -0.18847)             (6.95235 -0.332672 -0.21488)             (7.369 -0.56328 -0.13543)             (7.01175 0.0533808 0.0669823)             (7.08586 0.627814 0.112448)             (6.8274 0.585931 0.246467)             (7.3769 0.672838 -0.106569)             (7.63062 0.241567 -0.636767)             (7.83686 0.506125 -0.287274)             (7.84036 0.869597 -0.00497537)             (7.64482 1.02774 -0.0199566)             (7.48744 1.06189 -0.124394)             (7.79769 0.853391 -0.23467)             (7.72124 0.761343 -0.426633)             (7.54834 0.838879 -0.349553)             (7.80073 0.2293 -0.709066)             (7.91316 0.055304 -0.895366)             (7.62632 0.358233 -0.63832)             (7.74712 0.90091 -0.318292)             (7.61741 0.768802 0.0301821)             (7.71863 0.77869 -0.132993)             (7.70049 0.295306 0.551956)             (7.55682 0.053835 0.512678)             (7.55682 0.053835 0.512678)             (7.70247 -0.154105 0.420279)             (7.77765 -0.679502 0.185951)             (7.83545 -0.867198 0.205593)             (8.08407 -0.391373 0.498097)             (8.24325 -0.642393 0.50489)             (8.23364 -0.421715 0.306885)             (8.69622 -0.0648806 -0.145349)             (8.42154 -0.0351012 -0.323748)             (-1e+300 -1e+300 -1e+300)             (-1e+300 -1e+300 -1e+300)             (-1e+300 -1e+300 -1e+300)             (-1e+300 -1e+300 -1e+300)             (-1e+300 -1e+300 -1e+300)             (-1e+300 -1e+300 -1e+300)             (-1e+300 -1e+300 -1e+300)             (-1e+300 -1e+300 -1e+300)             (-1e+300 -1e+300 -1e+300)             (-1e+300 -1e+300 -1e+300)             (-1e+300 -1e+300 -1e+300)             (-1e+300 -1e+300 -1e+300)             (-1e+300 -1e+300 -1e+300)             (-1e+300 -1e+300 -1e+300)             (-1e+300 -1e+300 -1e+300)             (-1e+300 -1e+300 -1e+300)             (-1e+300 -1e+300 -1e+300)
       14.294             (2.66328 0.339229 -0.0407689)             (4.83218 0.17722 0.448553)             (5.59475 0.276871 0.579719)             (6.51129 0.178709 0.358757)             (6.54715 0.548777 0.18188)             (6.03589 0.323832 -0.185828)             (6.6453 -0.121245 -0.169057)             (7.07548 -0.227779 -0.13755)             (7.36979 -0.347913 -0.132054)             (7.26408 0.606632 -0.212982)             (7.61948 0.836187 0.0140689)             (6.79558 0.787547 -0.0276046)             (7.12894 0.57501 -0.585561)             (7.41169 0.327753 -0.829715)             (7.41365 0.208362 -0.425203)             (7.57513 0.707887 0.00962056)             (7.36883 1.00507 0.0343067)             (7.43802 1.16881 -0.112718)             (7.55939 1.01469 -0.0791436)             (7.66276 0.958371 -0.199323)             (7.54763 0.983519 -0.296311)             (7.67075 0.334189 -0.501209)             (7.82707 0.0351576 -0.697834)             (7.56 0.399629 -0.484948)             (7.69328 1.07276 -0.119286)             (7.47535 0.803901 0.241281)             (7.55071 0.876976 0.0169958)             (7.56523 0.561005 0.502921)             (7.48564 -0.046265 0.593824)             (7.48564 -0.046265 0.593824)             (7.67339 -0.247719 0.431351)             (7.76376 -0.723733 0.182609)             (7.89817 -0.838136 0.228423)             (8.01851 -0.358284 0.532297)             (8.21451 -0.597772 0.523238)             (8.18995 -0.43961 0.353198)             (8.59238 -0.0716247 -0.0724328)             (8.35049 -0.0230567 -0.315503)             (-1e+300 -1e+300 -1e+300)             (-1e+300 -1e+300 -1e+300)             (-1e+300 -1e+300 -1e+300)             (-1e+300 -1e+300 -1e+300)             (-1e+300 -1e+300 -1e+300)             (-1e+300 -1e+300 -1e+300)             (-1e+300 -1e+300 -1e+300)             (-1e+300 -1e+300 -1e+300)             (-1e+300 -1e+300 -1e+300)             (-1e+300 -1e+300 -1e+300)             (-1e+300 -1e+300 -1e+300)             (-1e+300 -1e+300 -1e+300)             (-1e+300 -1e+300 -1e+300)             (-1e+300 -1e+300 -1e+300)             (-1e+300 -1e+300 -1e+300)             (-1e+300 -1e+300 -1e+300)             (-1e+300 -1e+300 -1e+300)
       14.296             (2.97551 0.18036 0.0310906)             (4.90799 -0.0924341 0.0757023)             (5.53825 0.48066 0.330199)             (6.33087 0.222478 0.142558)             (6.287 0.608797 -0.0118376)             (6.05968 0.307141 -0.105845)             (6.65263 0.131966 0.0664885)             (6.99055 0.0789933 0.133737)             (7.20447 -0.165759 0.184505)             (7.48987 0.204008 0.335958)             (7.77515 0.647932 -0.193016)             (6.87024 0.753934 -0.629713)             (7.07529 0.504153 -0.967923)             (7.08649 0.517157 -0.776196)             (7.06267 0.200262 -0.502099)             (7.3203 0.619738 0.0109866)             (7.26171 0.920136 0.0848988)             (7.35034 1.18755 -0.0812666)             (7.32927 1.1631 -0.0133495)             (7.40426 1.15267 -0.112591)             (7.44403 1.04479 -0.337428)             (7.53808 0.37403 -0.357866)             (7.73812 0.0310209 -0.503433)             (7.53373 0.369134 -0.345631)             (7.67027 1.15351 0.084529)             (7.35637 0.764554 0.450189)             (7.38046 0.852746 0.236242)             (7.4141 0.747521 0.454515)             (7.41276 -0.140349 0.656512)             (7.41276 -0.140349 0.656512)             (7.65518 -0.327659 0.433659)             (7.75603 -0.757267 0.183467)             (7.94738 -0.800264 0.248398)             (7.94324 -0.333321 0.552498)             (8.19791 -0.53112 0.523425)             (8.1564 -0.428587 0.385632)             (8.47735 -0.0666028 -0.00346006)             (8.26855 0.00127597 -0.299818)             (-1e+300 -1e+300 -1e+300)             (-1e+300 -1e+300 -1e+300)             (-1e+300 -1e+300 -1e+300)             (-1e+300 -1e+300 -1e+300)             (-1e+300 -1e+300 -1e+300)             (-1e+300 -1e+300 -1e+300)             (-1e+300 -1e+300 -1e+300)             (-1e+300 -1e+300 -1e+300)             (-1e+300 -1e+300 -1e+300)             (-1e+300 -1e+300 -1e+300)             (-1e+300 -1e+300 -1e+300)             (-1e+300 -1e+300 -1e+300)             (-1e+300 -1e+300 -1e+300)             (-1e+300 -1e+300 -1e+300)             (-1e+300 -1e+300 -1e+300)             (-1e+300 -1e+300 -1e+300)             (-1e+300 -1e+300 -1e+300)
       14.298             (3.83424 -0.110501 0.162986)             (4.62539 -0.577931 0.184593)             (5.33152 0.689665 0.139826)             (6.18962 0.534788 -0.0413678)             (6.13279 0.59616 -0.252544)             (6.16026 0.400888 -0.0403069)             (6.62382 0.352873 0.153239)             (6.767 0.243524 0.250755)             (7.02691 0.0523553 0.382698)             (7.3849 -0.217824 0.563763)             (7.32309 0.680816 -0.564446)             (7.10961 0.689652 -0.62792)             (7.53538 0.774304 -0.290793)             (6.94961 0.814136 -0.431888)             (6.87632 0.479634 -0.281669)             (7.12299 0.80072 0.141538)             (7.23114 1.00763 0.135961)             (7.21816 1.15198 -0.00621266)             (7.16929 1.16304 0.0288931)             (7.1529 1.19342 -0.104579)             (7.27012 0.999227 -0.39913)             (7.47246 0.280771 -0.266252)             (7.65417 0.00524484 -0.351836)             (7.54594 0.260228 -0.239559)             (7.68155 1.1257 0.258531)             (7.27497 0.675025 0.612842)             (7.24149 0.734964 0.456862)             (7.27225 0.804997 0.444398)             (7.35978 -0.228832 0.688447)             (7.35978 -0.228832 0.688447)             (7.65901 -0.399175 0.421726)             (7.76675 -0.786563 0.184022)             (7.99241 -0.764077 0.25687)             (7.88142 -0.317762 0.55323)             (8.2064 -0.453746 0.503191)             (8.14796 -0.395545 0.399626)             (8.37213 -0.058399 0.0553727)             (8.1942 0.0298172 -0.278382)             (-1e+300 -1e+300 -1e+300)             (-1e+300 -1e+300 -1e+300)             (-1e+300 -1e+300 -1e+300)             (-1e+300 -1e+300 -1e+300)             (-1e+300 -1e+300 -1e+300)             (-1e+300 -1e+300 -1e+300)             (-1e+300 -1e+300 -1e+300)             (-1e+300 -1e+300 -1e+300)             (-1e+300 -1e+300 -1e+300)             (-1e+300 -1e+300 -1e+300)             (-1e+300 -1e+300 -1e+300)             (-1e+300 -1e+300 -1e+300)             (-1e+300 -1e+300 -1e+300)             (-1e+300 -1e+300 -1e+300)             (-1e+300 -1e+300 -1e+300)             (-1e+300 -1e+300 -1e+300)             (-1e+300 -1e+300 -1e+300)
         14.3             (4.49549 -0.877569 0.401729)             (4.21682 -0.369049 0.16405)             (5.16641 0.705534 0.0682376)             (6.11503 0.493298 -0.138667)             (6.06107 0.608825 -0.261943)             (6.21446 0.521732 -0.0959348)             (6.65401 0.338781 0.109624)             (6.69776 0.256024 0.197681)             (6.88122 0.16806 0.253965)             (7.15613 0.0603332 0.0957054)             (7.28356 0.613436 -0.216697)             (7.29967 1.04233 -0.0313495)             (7.42483 1.17705 0.0952957)             (6.76756 0.845593 -0.244862)             (6.80203 0.633358 -0.11663)             (7.0713 0.949828 0.145002)             (7.24555 1.13925 0.109326)             (7.08852 1.0948 0.081751)             (7.03131 1.04656 0.115468)             (7.02244 1.05392 -0.0947918)             (7.12801 0.862394 -0.432988)             (7.46894 0.0894681 -0.174521)             (7.56771 -0.0477685 -0.249455)             (7.57076 0.116269 -0.162363)             (7.70598 1.01722 0.388274)             (7.21701 0.569738 0.714263)             (7.13438 0.579181 0.624686)             (7.14619 0.737343 0.481535)             (7.32705 -0.304653 0.684415)             (7.32705 -0.304653 0.684415)             (7.67729 -0.460576 0.391617)             (7.78828 -0.808155 0.181945)             (8.02506 -0.727972 0.249823)             (7.83567 -0.301672 0.533599)             (8.23129 -0.366777 0.464119)             (8.1571 -0.338173 0.394693)             (8.27461 -0.0432978 0.101079)             (8.12356 0.0661556 -0.252003)             (-1e+300 -1e+300 -1e+300)             (-1e+300 -1e+300 -1e+300)             (-1e+300 -1e+300 -1e+300)             (-1e+300 -1e+300 -1e+300)             (-1e+300 -1e+300 -1e+300)             (-1e+300 -1e+300 -1e+300)             (-1e+300 -1e+300 -1e+300)             (-1e+300 -1e+300 -1e+300)             (-1e+300 -1e+300 -1e+300)             (-1e+300 -1e+300 -1e+300)             (-1e+300 -1e+300 -1e+300)             (-1e+300 -1e+300 -1e+300)             (-1e+300 -1e+300 -1e+300)             (-1e+300 -1e+300 -1e+300)             (-1e+300 -1e+300 -1e+300)             (-1e+300 -1e+300 -1e+300)             (-1e+300 -1e+300 -1e+300)
       14.302             (4.39841 -1.26427 0.506514)             (4.2087 0.0119751 0.109132)             (5.24559 0.803902 0.470353)             (6.08117 0.278406 0.0167761)             (6.03032 0.559285 -0.167623)             (6.20741 0.563574 -0.125438)             (6.68762 0.340333 0.0249272)             (6.80576 0.34341 0.0176978)             (6.89998 0.138441 -0.00807793)             (7.0438 0.369922 -0.233374)             (7.4178 0.73731 -0.0563636)             (7.22177 1.18541 -0.158279)             (7.12255 0.980257 -0.274752)             (6.59395 0.671364 -0.453962)             (6.93669 0.749797 -0.206116)             (7.18709 1.04497 0.0211194)             (7.292 1.1989 0.078364)             (6.98126 1.16871 0.0607734)             (6.89003 0.89488 0.196683)             (6.97127 0.843645 -0.0970637)             (7.09648 0.690349 -0.405801)             (7.46615 -0.0974206 -0.0578085)             (7.4763 -0.101106 -0.177842)             (7.58104 -0.00358953 -0.0933523)             (7.71776 0.879096 0.478351)             (7.16518 0.47237 0.767437)             (7.0456 0.429976 0.723679)             (7.04348 0.588403 0.547243)             (7.31521 -0.363427 0.644441)             (7.31521 -0.363427 0.644441)             (7.70052 -0.513154 0.339712)             (7.81261 -0.821451 0.173495)             (8.0397 -0.692543 0.224056)             (7.80799 -0.281184 0.492993)             (8.26443 -0.276581 0.408365)             (8.1766 -0.26169 0.372242)             (8.18384 -0.0235287 0.132338)             (8.05433 0.10787 -0.221736)             (-1e+300 -1e+300 -1e+300)             (-1e+300 -1e+300 -1e+300)             (-1e+300 -1e+300 -1e+300)             (-1e+300 -1e+300 -1e+300)             (-1e+300 -1e+300 -1e+300)             (-1e+300 -1e+300 -1e+300)             (-1e+300 -1e+300 -1e+300)             (-1e+300 -1e+300 -1e+300)             (-1e+300 -1e+300 -1e+300)             (-1e+300 -1e+300 -1e+300)             (-1e+300 -1e+300 -1e+300)             (-1e+300 -1e+300 -1e+300)             (-1e+300 -1e+300 -1e+300)             (-1e+300 -1e+300 -1e+300)             (-1e+300 -1e+300 -1e+300)             (-1e+300 -1e+300 -1e+300)             (-1e+300 -1e+300 -1e+300)
       14.304             (4.16782 -0.975567 0.294298)             (4.66777 0.28362 0.372483)             (5.69272 0.745302 0.97823)             (6.00215 0.250479 0.160665)             (6.10323 0.441529 -0.0496226)             (6.19738 0.578753 -0.0524071)             (6.56581 0.526481 -0.0682237)             (6.77787 0.477823 -0.16143)             (6.83913 0.132541 -0.171181)             (7.09641 0.623311 -0.180769)             (7.24763 0.925263 -0.408657)             (7.16577 0.82893 -0.603403)             (6.626 0.605337 -0.843534)             (6.61089 0.590388 -0.694394)             (7.16007 0.991469 -0.251696)             (7.28946 1.17964 -0.0124586)             (7.28507 1.22201 0.0720676)             (6.92388 1.26585 0.00710709)             (6.78159 0.737461 0.197491)             (6.95307 0.655556 -0.146827)             (7.18845 0.538745 -0.333459)             (7.43168 -0.176683 0.0622602)             (7.38153 -0.126201 -0.120556)             (7.56073 -0.0495261 -0.0108155)             (7.69989 0.763553 0.545815)             (7.11319 0.396347 0.799844)             (6.96419 0.311345 0.77039)             (6.97331 0.415118 0.612919)             (7.32185 -0.403363 0.572877)             (7.32185 -0.403363 0.572877)             (7.72599 -0.561533 0.263508)             (7.83799 -0.827966 0.154015)             (8.03992 -0.659446 0.178105)             (7.80519 -0.257073 0.432087)             (8.30445 -0.192556 0.339311)             (8.20515 -0.177104 0.335532)             (8.10402 -0.00506645 0.14951)             (7.99027 0.149144 -0.188599)             (-1e+300 -1e+300 -1e+300)             (-1e+300 -1e+300 -1e+300)             (-1e+300 -1e+300 -1e+300)             (-1e+300 -1e+300 -1e+300)             (-1e+300 -1e+300 -1e+300)             (-1e+300 -1e+300 -1e+300)             (-1e+300 -1e+300 -1e+300)             (-1e+300 -1e+300 -1e+300)             (-1e+300 -1e+300 -1e+300)             (-1e+300 -1e+300 -1e+300)             (-1e+300 -1e+300 -1e+300)             (-1e+300 -1e+300 -1e+300)             (-1e+300 -1e+300 -1e+300)             (-1e+300 -1e+300 -1e+300)             (-1e+300 -1e+300 -1e+300)             (-1e+300 -1e+300 -1e+300)             (-1e+300 -1e+300 -1e+300)