# Probe 0 (-0.091 0 0.008)
# Probe 1 (-0.091 0 0.016)
# Probe 2 (-0.091 0 0.024)
# Probe 3 (-0.091 0 0.032)
# Probe 4 (-0.091 0 0.04)
# Probe 5 (-0.091 0 0.048)
# Probe 6 (-0.091 0 0.056)
# Probe 7 (-0.091 0 0.064)
# Probe 8 (-0.091 0 0.072)
# Probe 9 (-0.091 0 0.08)
# Probe 10 (-0.0894 0 0.080016)
# Probe 11 (-0.0878 0 0.080016)
# Probe 12 (-0.0854 0 0.080016)
# Probe 13 (-0.083 0 0.080016)
# Probe 14 (-0.079 0 0.080016)
# Probe 15 (-0.075 0 0.080016)
# Probe 16 (-0.067 0 0.080016)
# Probe 17 (-0.059 0 0.080016)
# Probe 18 (-0.051 0 0.080016)
# Probe 19 (-0.043 0 0.080016)
# Probe 20 (-0.035 0 0.080016)
# Probe 21 (-0.027 0 0.080016)
# Probe 22 (-0.019 0 0.080016)
# Probe 23 (-0.011 0 0.080016)
# Probe 24 (-0.003 0 0.080016)
# Probe 25 (0.005 0 0.080016)
# Probe 26 (0.013 0 0.080016)
# Probe 27 (0.021 0 0.080016)
# Probe 28 (0.029 0 0.080016)
# Probe 29 (0.037 0 0.080016)
# Probe 30 (0.045 0 0.080016)
# Probe 31 (0.053 0 0.080016)
# Probe 32 (0.061 0 0.080016)
# Probe 33 (0.069 0 0.080016)
# Probe 34 (0.077 0 0.080016)
# Probe 35 (0.085 0 0.080016)
# Probe 36 (0.091 0 0.080016)
# Probe 37 (0.091 0 0.072016)
# Probe 38 (0.091 0 0.064016)
# Probe 39 (0.091 0 0.056016)
# Probe 40 (0.091 0 0.048016)
# Probe 41 (0.091 0 0.040016)
# Probe 42 (0.091 0 0.032016)
# Probe 43 (0.091 0 0.024016)
# Probe 44 (0.091 0 0.016016)
# Probe 45 (0.091 0 0.008016)
#       Probe             0             1             2             3             4             5             6             7             8             9            10            11            12            13            14            15            16            17            18            19            20            21            22            23            24            25            26            27            28            29            30            31            32            33            34            35            36            37            38            39            40            41            42            43            44            45
#        Time
        0.262       8.21845       8.58218       9.11299       8.89835        8.9574       8.98462       8.67334       7.98503       6.61605      -1.33968      -9.24915       -8.1327       -7.1232      -6.44915      -6.38956      -6.56712      -6.35511      -7.00112      -6.72099       -6.0989      -4.95937      -4.38573      -4.64036      -4.60608      -4.87953      -5.58363      -5.87876      -5.60242      -5.83826       -6.4813      -6.33257      -6.44103      -6.23764      -5.83293      -4.18581      -2.59134     -0.355184      -2.08776      -2.63703      -2.98877      -3.21819       -3.0599      -2.72996      -2.58172      -2.13767       -1.7138
        0.264       7.86786        7.9775       8.03469       8.06417       8.20598       8.23441       7.88277       7.27471       6.13469      -1.49507      -8.29905       -9.0083      -9.68691      -8.82934      -7.55754      -7.33539      -6.90349      -7.64621      -8.45024      -7.06257      -5.98457       -4.8579      -4.81774       -4.8918       -5.1235      -5.60121      -6.06391      -6.22005      -6.65357      -6.23064      -7.67674      -7.69076      -7.57728      -7.14561      -5.56193      -3.32466      -1.91847      -2.96213      -3.33155      -3.54746       -3.7083       -3.4087      -3.17584      -2.99705      -2.51535      -2.16239
        0.266       7.52204        7.1769       7.14273       7.49441       7.72327       7.68065       7.36875       6.69405       5.63886      -2.19262      -9.73825      -9.10882       -9.3472      -9.96203      -9.66628      -8.60003      -7.18685      -7.91453      -9.17052      -8.19754      -6.68708      -5.48457      -4.75256      -4.89106      -4.94159      -5.55931      -6.27788      -6.68284       -7.1067      -7.80698      -8.29248      -8.10738      -8.39039      -7.87775       -7.5349      -4.60086      -4.26928      -3.79054      -3.91962      -4.03063      -4.08738      -3.75082      -3.60782      -3.31905      -2.94267      -2.53635
        0.268       3.42758       2.95558       2.96847       3.43965       3.69304       3.63589       3.34506       2.55618       1.48942      -6.54418      -14.4394       -14.302      -13.8005      -13.8411      -14.4867      -13.9147      -10.9722      -11.5255      -12.7907      -12.7745      -10.9451      -9.77158      -8.68439      -8.37079      -7.79226      -8.74581      -9.61532      -9.81348      -10.2932      -12.1821      -10.8606      -10.4432      -11.2924        -11.56      -12.2048      -9.00309      -10.4212      -7.45128      -7.38955      -7.50172      -7.38621       -7.1325      -7.00449       -6.5953      -6.32459      -5.77231
         0.27      -5.02263      -5.49269      -5.29427      -4.96639      -4.70778      -4.69312       -4.9329      -5.75658      -7.01134      -14.9103        -22.42       -22.507      -22.8596      -22.6734      -22.1123      -22.2132       -19.468      -19.3698      -20.3837      -20.8958      -19.6267      -17.9197      -16.5382      -15.5133      -14.7359      -15.7661      -16.7394      -16.8708      -17.2481      -17.4745      -16.5189      -16.5749      -17.3886      -18.0351      -19.2839      -16.7204       -17.807      -14.4328      -14.2772      -14.4308       -14.164      -14.0276      -13.8669      -13.4177      -13.1127       -12.439
        0.272        5.3859       4.85419       5.21359       5.40478       5.66572       5.69086       5.48709       4.67385       3.03095      -4.89086      -12.5826      -12.2716       -12.685      -13.2144      -13.4598      -13.1994      -11.0649      -9.49464      -10.0193      -10.6337      -10.4606      -8.60585      -7.15304      -4.82794       -4.8878      -5.79305      -6.92686      -7.35122      -7.61799      -7.50975      -7.33863      -7.67924      -7.78898      -8.26624      -9.53287      -7.39957      -8.01356      -5.70117      -5.69362      -5.86331      -5.68463      -5.63651      -5.45096      -5.07834      -4.65717      -3.96157
        0.274      -3.90989      -4.38889      -4.05581      -3.90398        -3.613      -3.62885      -3.76341      -4.44893      -6.09653      -14.2445      -22.2773      -22.2065      -21.9345      -22.0141      -22.7983      -23.3177      -21.5683      -19.0094      -18.6029      -19.1755      -19.3282       -17.825      -15.8667      -12.9571      -13.2193      -13.6517      -14.6511      -15.3873      -15.6148      -16.1005      -15.4124      -15.4552      -15.2051      -15.6467       -16.627      -14.9907      -15.0998      -13.3421      -13.4524      -13.4644      -13.4224      -13.3514      -13.1256      -12.8126      -12.2962      -11.6543
        0.276       8.98511       8.52272        8.6117       8.81736        9.1322        9.0311       8.87314       8.23726       6.61093      -2.06025      -9.21444      -9.55253      -9.96608      -9.97458      -10.1316      -11.1301       -11.876      -8.20209      -6.13742      -6.31609      -6.93635       -6.9084      -3.94645      -1.77621      -1.63944      -1.45933      -2.35533      -3.44938      -3.33483      -4.64541      -3.99672      -3.89206       -3.4366      -3.81668      -4.81912      -3.55063      -3.72102      -2.66736      -2.92725      -2.92793      -3.00201      -2.96271      -2.75512      -2.47919      -1.95933       -1.4474
        0.278        8.1149       7.57068       7.52551        7.8397       8.18964       8.08051       7.90583       7.35109       5.80181      -2.73655      -10.5761      -10.0491      -10.1176      -10.8146      -11.6194      -12.2855      -14.2129      -10.3954      -6.25356      -6.32433      -7.18027      -7.43333      -4.62592      -2.97175      -2.31445      -1.58358      -2.35548      -3.47936      -3.25102      -4.85209      -4.65505      -4.41617      -4.10956      -4.37524      -4.93954      -3.68154      -3.97491      -3.31078      -3.55493       -3.6135      -3.62805      -3.61089      -3.40456      -3.16447      -2.66856      -2.30079
         0.28       3.59512       3.03271       2.96778       3.35002       3.68985       3.60789       3.42416       2.94793       1.48703      -6.82731      -14.3004      -14.2297      -13.9664      -13.9041      -15.1752      -16.4601      -19.2773      -15.7768      -10.1189      -9.70252      -10.3495      -10.5199      -9.27291      -7.41892      -6.12759      -4.88715      -5.46989       -6.3373      -6.51693      -7.53459      -8.19164      -8.06743      -7.77789      -7.93609      -8.31403      -6.49673      -6.96075      -6.80022      -6.97741      -7.04944      -6.98663      -6.97335      -6.77568      -6.58962      -6.14835      -5.90719
        0.282       -0.7101      -1.22424      -1.28307     -0.889764     -0.598644     -0.665861     -0.820939      -1.24227      -2.54242      -10.2366      -16.8424      -17.1338      -17.5096      -17.6208      -17.7862      -19.0098      -23.2064      -20.4036      -14.8626      -13.2607      -13.4365       -13.998      -13.9493      -11.6299      -9.73057       -8.6301      -8.25357      -9.02959       -9.4564      -10.0771      -11.2473      -11.0932      -11.2665      -11.0333       -11.506      -9.97662      -10.3331      -10.0296      -10.1611      -10.1523      -10.0756      -10.0578      -9.89913      -9.77878       -9.4185      -9.26389
        0.284      -2.37738      -2.82447      -2.86716      -2.49752      -2.29203      -2.37266      -2.48951      -2.91283      -4.14457      -11.1678      -18.3529      -18.0768      -17.9851      -18.5451      -18.6406       -19.466      -23.1021      -24.2057      -18.9837      -15.3893      -13.8712      -14.6188      -15.1433      -13.7894      -11.2488      -10.0928      -9.07373       -9.5838      -10.1055      -10.5588       -11.595      -11.4536      -11.9053      -11.8091      -12.4794      -12.3578      -11.8439      -10.9289      -10.9873      -10.9035      -10.8847      -10.8665      -10.8245      -10.7893      -10.5093       -10.405
        0.286      -1.96765      -2.29781      -2.34035      -2.04432      -1.93492      -2.04467      -2.14116       -2.5828      -3.81249      -10.2781      -16.7328      -17.0059      -17.0008      -17.0538      -17.9717      -17.9963      -19.6243      -23.1907      -20.7475      -15.5325      -12.6338      -13.3696      -13.8666      -13.9375      -11.4791      -9.01195       -8.3362      -8.42203      -8.94158      -9.28614      -10.2898      -10.0844      -10.2152      -10.7943      -11.1749      -11.7729      -10.0192      -9.96418      -9.96887      -9.87251      -9.93231      -9.94081      -10.0735      -10.1278      -9.91352       -9.8334
        0.288      -3.85064      -4.05136      -4.10417      -3.89683      -3.85737      -3.99638      -4.09268      -4.54989      -5.79199      -11.6677      -17.1182      -17.1689      -17.6854      -18.3294      -18.2456      -18.4365      -19.2864      -22.9175      -24.0285      -18.9005      -15.0639      -14.3174      -14.6717      -15.3269      -14.2996      -10.9913      -9.75561      -9.01155      -9.85199      -10.0728      -10.9369      -10.9689      -10.7825      -11.8717      -11.4954      -11.7774      -10.6547      -10.7778      -10.7407      -10.7197      -10.8526      -10.9577      -11.2371       -11.361      -11.2225      -11.1389
         0.29       -11.087      -11.2384      -11.2759      -11.1465      -11.1312      -11.2889      -11.3942      -11.8591      -13.1201      -18.7221      -23.9978      -23.5421      -23.4791      -23.6389      -23.9832       -23.973      -26.0746        -27.75      -29.4002      -26.9952      -21.6821      -20.1807      -20.4296      -20.8278      -21.1711      -18.6953      -16.1648      -14.7717      -15.2102      -15.7407      -16.2075      -16.9194      -16.4105      -17.6788      -17.5365      -17.0735      -16.7621      -16.1345      -16.0046      -16.0994      -16.3423      -16.5356      -16.8052      -16.9869      -16.9263      -16.8197
        0.292      -7.27474      -7.46433      -7.47513      -7.40312      -7.39126      -7.58373      -7.72829      -8.23152      -9.56487      -14.8964      -19.5922      -19.6147      -19.2924       -19.024      -19.1705      -19.0084      -21.3897      -22.8587      -24.7054      -24.3688      -17.9958      -16.1283      -15.3987      -16.1987       -17.178      -15.8289      -13.3687      -11.7355      -10.5768      -11.8421      -11.9289      -13.3374      -12.8087      -14.0489      -14.5171      -14.8888      -15.0051      -12.4287      -12.3511      -12.6361      -13.0456      -13.2964       -13.425      -13.7234      -13.7006      -13.5766
        0.294     -0.568924     -0.789138     -0.786863     -0.732171     -0.698167     -0.920519      -1.10681      -1.63272      -3.06679      -8.26588      -12.1239       -12.363      -12.7175      -12.6545      -12.2851      -12.5152      -14.7045      -15.2359      -17.7335      -18.3963      -13.3031      -9.51388      -8.66157      -9.09889      -10.5457      -10.2436      -7.82311        -6.162      -5.16245      -5.25941      -5.43102      -6.83791      -6.84904      -7.61838      -8.23296      -9.11365      -9.23385      -6.32249      -6.47078      -6.97178      -7.57759      -7.63825      -7.64229      -8.10451      -8.07926      -7.95906
        0.296      -6.54716      -6.74553      -6.73202      -6.64583      -6.54709      -6.75094      -6.93889      -7.39854      -8.87547      -14.0024      -17.9048      -17.6551      -17.8616      -17.9481      -18.2792      -18.4937      -19.5558      -20.3947      -22.6088      -22.3976      -20.8989      -16.8062      -13.9845      -13.7032      -15.3045      -14.4797      -13.0215      -11.9065      -10.8818      -9.96117      -10.0877      -10.5241      -11.7626       -11.799      -12.6764      -13.5992      -14.2544      -10.7838       -11.137      -11.8198      -12.4241      -12.1448      -12.1983      -12.6796      -12.6625      -12.5693
        0.298      -13.1405      -13.2932      -13.2832      -13.1406      -12.9486      -13.0763      -13.2201      -13.5373      -14.9207      -20.0208      -23.9405       -24.006      -24.2217      -24.4826      -25.1732      -25.3763      -26.3205      -26.3574      -27.2292      -28.5149      -29.4971      -25.0773       -20.214      -18.9848      -19.8798      -20.2636      -18.6532      -17.4835      -16.8771      -16.1509      -15.5077      -15.2248      -16.9717      -16.8631      -17.8396      -18.2331      -18.1442      -16.0318      -16.4458      -17.3529      -17.3638      -17.2679      -17.4191      -17.7706      -17.7554      -17.6953
          0.3      -11.0271      -11.1258      -11.1449      -10.9587      -10.6743      -10.6962      -10.7842      -11.0223      -12.2777      -17.6874       -21.827      -22.3132      -22.5093      -23.0149      -23.6607      -23.6096      -24.4413      -24.1996      -24.1218      -26.1123      -28.7497       -23.793      -17.7694      -16.7293      -17.8275       -18.654      -17.4082      -15.3225      -14.5656      -14.4634      -14.1105      -13.1299      -13.9069      -14.9226      -15.4033      -15.7969      -15.2155      -14.3237      -14.6953      -15.6854      -15.2637      -15.5088      -15.7088      -15.9022      -15.8532      -15.8276
        0.302       -6.7143      -6.77211      -6.81595      -6.60717      -6.24565      -6.15271      -6.20111      -6.44637      -7.66453      -13.5628       -18.333      -18.6248      -18.6044      -18.7344      -18.8047      -19.4688      -20.8059      -19.9883      -20.0538      -21.4807      -24.8296      -21.4729      -14.9747      -12.9134      -14.1629      -15.1384      -14.6594      -12.4594       -10.452      -10.5089      -10.6919      -10.2892       -9.5465         -11.1      -11.1749      -11.7758      -10.8356      -10.7322       -11.307      -12.0027      -11.8258      -12.1947      -12.3825      -12.4299      -12.3544      -12.3491
        0.304      -6.74852      -6.82904      -6.86429      -6.63713      -6.21659       -6.0272        -6.059       -6.3226      -7.57683      -13.9132      -19.2083       -19.283      -19.2075      -19.0627      -18.8175      -20.1246      -20.7333      -21.2076      -20.9394       -24.443      -30.0958       -24.571      -18.4533      -14.3884      -14.6721      -15.6331      -16.0935      -13.8306      -11.3731      -9.94471      -10.7252      -10.9666       -10.313      -10.5975      -10.9798      -11.8276      -10.5566      -10.6627      -11.5751      -11.9089       -12.151      -12.5144      -12.6407      -12.5888      -12.4932      -12.4953
        0.306      -4.36526      -4.53831      -4.55956      -4.29086      -3.82265       -3.5835      -3.59407      -3.87185      -5.18498      -11.7917      -17.4961      -17.3818      -17.1428      -17.0009      -16.5687      -17.3336      -18.5388      -18.9233        -19.67      -21.7674      -21.1652      -21.8319      -14.5243       -13.457      -12.9393      -13.8133      -15.1213      -13.6528      -10.5705      -8.07026      -8.18447      -9.07116      -9.11862      -8.45799      -8.81339      -9.67392      -8.93298      -8.58413      -9.82932      -9.93149      -10.4735      -10.7833      -10.8244      -10.7501      -10.6791      -10.6787
        0.308      -1.94319      -2.23389      -2.23625      -1.89519      -1.36224       -1.0875      -1.06167      -1.37456      -2.70929      -9.37427      -15.1532      -15.2025      -15.0419      -14.7771      -15.6182      -15.7953       -17.158      -16.7035      -17.3729      -16.0539      -19.6267      -17.5895      -12.5637      -11.1759      -11.4333      -12.3643       -13.479       -12.346      -9.84868      -6.42624      -5.78871      -6.71379       -7.3994      -6.99083      -6.77538       -7.1155      -6.94678      -6.55305       -8.0637      -8.08055      -8.67659       -8.9041      -8.88343      -8.84022       -8.8161      -8.80336
         0.31      -1.62595      -2.02501      -1.98998      -1.57861     -0.966286     -0.643505     -0.589481     -0.984945      -2.32563      -8.83865      -14.6045      -14.5963      -14.9171      -15.1035      -15.9806      -16.4123      -17.1787       -17.085      -16.0665      -14.8978      -18.6511      -16.7118      -14.8954      -12.2391       -12.345      -12.2772       -12.639      -11.5254      -9.12954      -6.83044       -5.8893      -5.71691      -7.02475       -7.2534      -6.92338      -6.58627      -6.36987      -6.37611      -7.97015      -7.93421      -8.37304      -8.59916      -8.58862      -8.59042      -8.62763      -8.58529
        0.312       1.03164      0.483143      0.587011       1.03698       1.71381       2.11239       2.15141       1.66063      0.323138      -6.03726      -12.5733      -11.8978      -11.9071      -12.8698      -13.4357      -14.4868      -14.8676      -15.0009      -13.0551      -14.1701       -16.059      -13.9289      -12.6833      -10.6806      -11.1008      -9.15771      -9.79084       -9.3966      -6.80093      -4.70393      -4.54112       -4.0769      -3.81311      -5.23568      -5.03332      -4.62309      -3.91741       -4.3632       -5.9555      -5.66976      -5.99229      -6.36378       -6.4112      -6.41484      -6.50402      -6.42191
        0.314       1.10743      0.490846       0.62336        1.0737       1.77736       2.24319       2.29219       1.82157      0.593288      -5.97518      -12.4581      -12.6262      -12.5304      -13.1813      -13.2361      -14.3653      -14.8024      -15.7538      -13.6771      -13.4361      -16.0568      -13.5146      -11.1503        -10.57      -12.0047      -9.55636      -9.51594      -9.49443      -7.18789      -5.25096      -5.14998      -4.88847      -3.97338      -4.71952      -5.07237      -4.80834      -4.12958      -4.38223      -5.84098      -5.16658      -5.64972       -6.0738      -6.20139      -6.17205      -6.25229      -6.15224
        0.316       1.03373      0.451953      0.552735      0.988283       1.68449       2.15883       2.22772       1.81156      0.741324      -5.80798      -11.6964       -12.123      -12.9125      -13.8269       -13.258      -13.6961      -14.4212      -14.7169       -13.599      -14.1256      -14.9805      -14.1526      -10.6884      -10.4788      -12.5203      -10.1594      -9.57796      -8.92727      -6.87338      -4.58265      -5.38505      -5.12237      -4.60281       -3.6945      -4.87798      -4.81743      -4.24558      -4.38296      -5.71947      -4.78381      -5.42428      -5.76656      -6.00687      -5.96504      -6.02218      -5.89898
        0.318       2.63604       2.10788       2.17691       2.59115       3.24957       3.70491       3.76387        3.3751       2.42295      -3.89177       -10.931      -10.5201      -10.3984      -11.4784      -12.2307      -11.3208      -11.9499      -11.8243      -12.2389      -13.8377      -12.4984      -12.1972      -9.98452      -9.09235      -9.50589      -9.02977       -8.4296      -6.54098       -4.8916      -2.18757      -3.56601       -3.9503      -3.25963      -2.36932      -2.59196      -3.25813      -2.87277      -2.95718      -3.99621      -3.24938      -3.80573      -4.09893      -4.41082      -4.39621      -4.43217      -4.28756
         0.32        1.6314       1.16254       1.23047       1.59163       2.18338       2.65265       2.73466       2.43789       1.56248      -4.74831      -11.5877      -11.7374      -11.7115      -12.0874      -13.3129      -12.5061      -12.2617      -12.1318      -12.8302      -15.4365      -12.2276      -12.0316      -10.2922      -11.2713      -9.51434      -10.2054      -9.21034      -6.02675       -5.2122      -3.11743       -3.8084      -4.82591       -4.3135      -3.56435      -2.76745      -3.53075      -3.65415      -3.57474      -4.10437      -3.88783      -4.22679      -4.55416      -4.82824       -4.8568      -4.86143      -4.71508
        0.322        6.3961       6.07494       6.11311       6.38987       6.89822       7.38878       7.54418        7.3689       6.51476      0.187702      -5.48362      -6.25484      -7.38407      -7.60908      -8.06839      -8.15141      -7.45522      -7.00627      -7.45805      -9.71581      -7.19702      -5.55069      -5.04327      -8.42301      -4.94629       -5.7376      -4.28608     -0.432401     -0.502645    -0.0949822      0.711723     -0.411812     -0.428323      0.438249       1.11464       1.55161      0.694508       0.58352      0.355213      0.219773     0.0306309     -0.337672     -0.549823     -0.595878      -0.58789     -0.455694
        0.324       3.61958        3.5156       3.46903       3.66388       4.12236       4.61365         4.907       4.89731       4.09141      -2.77568       -9.1242      -8.88914      -9.12728      -10.0769      -10.3697      -10.1485       -9.4486      -8.77915      -8.78201      -10.4913      -9.63244      -7.81002      -7.08583      -10.9208      -8.10881      -7.33466      -5.61722      -2.64084      -2.82815        -3.332      -2.59274      -2.14321       -2.8319      -2.27139      -1.47288     -0.538625     -0.879355       -1.5196       -1.5551      -1.78109      -1.94909      -2.29758      -2.46363      -2.48439      -2.46066      -2.36093
        0.326      -6.23768       -6.1886      -6.31889       -6.1748      -5.74156      -5.25756      -4.80663      -4.61478      -5.25519      -11.8579      -18.6116      -18.8209       -18.287      -18.4911      -19.1645       -19.372      -18.6391      -17.5699      -17.9161      -20.3288      -18.2486      -16.7738      -16.9731      -18.1702      -16.8661      -15.6282      -13.4905      -11.7301       -11.526      -12.0406      -11.7884      -10.6689      -10.7851      -10.7205      -10.0539      -9.09257      -8.23696      -9.43989      -9.41908      -9.53906      -9.70935      -10.0159      -10.1598      -10.1182      -10.0627      -9.99964
        0.328       -5.7167      -5.67641       -5.8657       -5.7597      -5.36069       -4.9208        -4.384       -4.1345      -4.72877       -11.079      -16.7787      -17.1219      -17.5391      -17.7359      -17.9706      -18.7828       -17.243      -16.4965      -17.9684      -18.5846      -16.9824       -15.873      -16.4065      -16.3521      -15.6915      -14.6217      -13.2478      -11.2612      -10.9943      -11.4031      -11.3902      -10.7012      -9.91592      -10.1448      -9.73049      -8.91817      -7.72681      -8.89222      -8.83413      -8.94923      -9.05412      -9.34314      -9.50011      -9.41044      -9.31803      -9.29672
         0.33       1.99665       1.87975       1.64468       1.70792       2.03421       2.48125       3.04073        3.1771       2.51069      -4.01356      -9.88467      -9.58839      -9.66132      -10.0576      -10.1366      -10.6782       -9.6886      -8.39838      -11.3845      -10.2036       -9.1248      -8.83619      -8.59642      -7.94879      -8.12692       -7.2975      -6.65979      -4.78966      -4.45962      -4.59494      -4.68887      -4.37037      -3.57361      -3.50141      -3.29527       -2.7963      -1.84409      -2.61543      -2.51307      -2.69246      -2.69379       -2.9219      -3.11125      -3.02604      -2.89314      -2.89469
        0.332       7.40774       7.09503       6.82946       6.82104       7.04717       7.56738       8.11134       8.08674       7.35039      0.980465      -4.92863      -4.81824      -4.50328      -4.85545      -5.34018       -5.7065      -4.45921      -3.31702       -5.5444      -4.15898      -3.54878      -3.55772      -2.74436      -2.47725      -3.36812      -2.00369      -2.02767     -0.480354    -0.0803939     0.0213688    -0.0849609      0.059895       0.51632       1.09236       1.08652        1.4803        1.9871       1.59704       1.78178       1.58374       1.65138       1.55873       1.33762       1.37867        1.5439       1.55216
        0.334      -3.13645      -3.57822       -3.8293      -3.92913      -3.79549      -3.23128      -2.71447      -2.76599      -3.47999      -9.15419      -15.0784      -15.0098      -15.2208      -15.3378      -15.5225      -15.5323      -15.1568      -13.6931      -14.7244      -12.5541       -12.525      -12.4236       -12.054      -12.0595      -13.1746      -11.2625      -11.7362      -10.2527      -9.78796      -9.54763      -9.48303      -9.38772      -8.97485      -8.36752      -7.91048      -7.65485      -7.31268      -7.37958      -7.06199      -7.18798      -7.04466      -6.97741      -7.17515      -7.17633      -6.98582      -6.95266
        0.336      -6.47456      -6.96663      -7.18474      -7.32283       -7.2391      -6.82886      -6.41033      -6.43493      -7.15742      -12.1303      -17.9098      -17.7547      -18.3646      -18.6271      -18.7942      -18.7189      -17.8305      -16.7123      -17.5016      -14.3458      -14.8507      -14.7619       -14.955      -15.4823      -16.0855      -14.6514      -14.8269      -13.5785      -12.9906      -12.8303      -12.6491       -12.588      -12.2024      -11.8368      -10.9404      -10.6822      -10.3141      -10.3199      -9.96821      -10.0429      -9.89726      -9.75136      -9.84583      -9.90429      -9.73733      -9.71675
        0.338       2.82666       2.30081       2.14851       1.99579       2.06919       2.29287       2.59736       2.56709        1.7805      -2.62796      -8.06166      -8.55933      -9.00018      -9.33439      -9.76115      -10.5883      -9.37907      -8.81621      -8.01449      -5.80837      -5.55695      -5.72418      -5.90224      -6.51594      -7.18979       -6.8902      -6.34536      -5.77387      -4.95899      -4.98343      -4.77172      -4.74751      -4.40501      -4.21472      -3.61734      -3.00717      -2.56185      -2.80484      -2.49671      -2.54879      -2.47033       -2.3224       -2.2961      -2.40835      -2.32178      -2.36225
         0.34     -0.213473     -0.687775     -0.758408     -0.840589     -0.653581     -0.623027     -0.381246     -0.440926      -1.26936      -5.45477      -10.9129      -11.2754      -11.9097      -11.9591       -12.727      -13.3637      -12.4604      -11.7781      -9.63262       -9.1409      -7.53336      -7.98543       -8.1019       -8.6055      -9.43056      -10.0476      -8.93185      -8.37019       -7.9204      -7.91915      -7.69206      -7.52945      -7.10722      -6.85077      -6.71871      -5.76269      -5.17388      -5.36029      -5.09828      -5.09128      -5.02994       -4.8841      -4.73814       -4.8569      -4.84116      -4.93311
        0.342     -0.637697      -0.92108     -0.936944     -0.869819     -0.641888     -0.838728     -0.659496     -0.781048      -1.66704      -6.09646      -11.9192      -11.4934       -12.121      -12.3484      -13.5358       -13.859      -13.2638      -11.9499      -11.0343      -9.37935      -7.95324      -7.83652      -7.57326      -8.17037      -8.96833      -10.3181      -9.41207      -8.58599      -8.83341      -8.34368      -8.34442      -8.08307      -7.51447      -7.05867      -7.17275      -6.39589      -5.71667      -5.76354      -5.55659      -5.53184      -5.44372       -5.2789      -5.09045      -5.18855      -5.23959      -5.36617
        0.344      -3.16239      -3.25187      -3.14409      -3.10027      -2.90735      -3.21481      -3.10155      -3.28446      -4.23368      -8.70091       -14.253       -14.379      -14.5172      -14.8992        -15.88      -16.6986      -15.7418      -14.8209      -14.4111      -12.0157      -10.4674      -10.1139      -9.73718      -9.51284      -10.7038      -12.2069      -11.9756      -11.2123      -11.4887      -10.6469      -10.8828      -10.7634      -9.86785      -9.07187      -9.22519      -8.79475      -8.18083      -8.05037      -7.87962      -7.85502      -7.68713      -7.47293      -7.28989       -7.3597      -7.46143      -7.60023