# Probe 0 (-0.35 0 0.005)
# Probe 1 (-0.35 0 0.0155)
# Probe 2 (-0.35 0 0.02653)
# Probe 3 (-0.35 0 0.0381)
# Probe 4 (-0.35 0 0.05026)
# Probe 5 (-0.35 0 0.06302)
# Probe 6 (-0.35 0 0.07642)
# Probe 7 (-0.35 0 0.08)
# Probe 8 (-0.35 0 0.09049)
# Probe 9 (-0.35 0 0.10527)
# Probe 10 (-0.35 0 0.12078)
# Probe 11 (-0.35 0 0.13707)
# Probe 12 (-0.35 0 0.15417)
# Probe 13 (-0.35 0 0.17213)
# Probe 14 (-0.35 0 0.19099)
# Probe 15 (-0.35 0 0.2)
# Probe 16 (-0.35 0 0.21079)
# Probe 17 (-0.35 0 0.23157)
# Probe 18 (-0.35 0 0.2534)
# Probe 19 (-0.35 0 0.27632)
# Probe 20 (-0.35 0 0.30039)
# Probe 21 (-0.35 0 0.32566)
# Probe 22 (-0.35 0 0.35219)
# Probe 23 (-0.35 0 0.38005)
# Probe 24 (-0.35 0 0.4093)
# Probe 25 (-0.35 0 0.44002)
# Probe 26 (-0.35 0 0.47227)
# Probe 27 (-0.35 0 0.50613)
# Probe 28 (-0.35 0 0.54169)
# Probe 29 (-0.35 0 0.57903)
# Probe 30 (-0.35 0 0.61823)
# Probe 31 (-0.35 0 0.65939)
# Probe 32 (-0.35 0 0.70261)
# Probe 33 (-0.35 0 0.74799)
# Probe 34 (-0.35 0 0.79564)
# Probe 35 (-0.35 0 0.84567)
# Probe 36 (-0.35 0 0.8982)
# Probe 37 (-0.35 0 0.95336)
# Probe 38 (-0.35 0 1.01128)
# Probe 39 (-0.35 0 1.0721)
# Probe 40 (-0.35 0 1.13595)
# Probe 41 (-0.35 0 1.203)
# Probe 42 (-0.35 0 1.2734)
# Probe 43 (-0.35 0 1.34732)
# Probe 44 (-0.35 0 1.42493)
# Probe 45 (-0.35 0 1.50643)
# Probe 46 (-0.35 0 1.592)
# Probe 47 (-0.35 0 1.68185)
# Probe 48 (-0.35 0 1.77619)
# Probe 49 (-0.35 0 1.87525)
# Probe 50 (-0.35 0 1.97927)
# Probe 51 (-0.35 0 2.08848)
# Probe 52 (-0.35 0 2.20315)
# Probe 53 (-0.35 0 2.32356)
# Probe 54 (-0.35 0 2.44999)
#       Probe             0             1             2             3             4             5             6             7             8             9            10            11            12            13            14            15            16            17            18            19            20            21            22            23            24            25            26            27            28            29            30            31            32            33            34            35            36            37            38            39            40            41            42            43            44            45            46            47            48            49            50            51            52            53            54
#        Time
        0.002       14.2827       14.2592       14.1179       14.1371       14.0753       13.8394       13.7421       13.6852       13.5631        13.365        13.154       12.9359       12.7159       12.4269       12.2179       12.0836       11.9535       11.7013       11.4549       11.2543       11.1064       10.8851       10.6206       10.6401       10.4689       10.3093       10.1317        9.1043        9.7181        9.7181       9.77154       9.62281       9.55213       9.48519       9.37864       9.33909       9.30906       9.28885       -1e+300       -1e+300       -1e+300       -1e+300       -1e+300       -1e+300       -1e+300       -1e+300       -1e+300       -1e+300       -1e+300       -1e+300       -1e+300       -1e+300       -1e+300       -1e+300       -1e+300
        0.004       13.8693       13.8452       13.6992       13.7272       13.6617       13.4218       13.3167       13.2606       13.1364       12.9353       12.7212       12.4999       12.2766       11.9834       11.7714       11.6353       11.5032       11.2538       11.0381       10.8166       10.6495       10.4243       10.2372       10.1743       10.0342       9.89317       9.77136       9.38289       9.45239       9.45239       9.45495       9.30018       9.25492       9.20042        9.1157       9.08452       9.06093        9.0451       -1e+300       -1e+300       -1e+300       -1e+300       -1e+300       -1e+300       -1e+300       -1e+300       -1e+300       -1e+300       -1e+300       -1e+300       -1e+300       -1e+300       -1e+300       -1e+300       -1e+300
        0.006       10.9123       10.8895       10.7456       10.7784        10.716       10.4839       10.3829       10.3309       10.2128       10.0223        9.8194        9.6094       9.39722        9.1181       8.91586        8.7858       8.65918       8.42425       8.20501        7.9927       7.82297       7.60902       7.44998       7.34794       7.22553       7.09075        6.9823       6.74875       6.74134       6.74134       6.70774       6.55406       6.53164       6.47968       6.40141       6.37291       6.35148       6.33714       -1e+300       -1e+300       -1e+300       -1e+300       -1e+300       -1e+300       -1e+300       -1e+300       -1e+300       -1e+300       -1e+300       -1e+300       -1e+300       -1e+300       -1e+300       -1e+300       -1e+300
        0.008       4.11384       4.08995       3.92468       3.97447       3.90779       3.65229        3.5452       3.48926       3.36539        3.1645        2.9504       2.72845       2.50381       2.20765       1.99251       1.85388       1.71907       1.46712       1.21671      0.997129      0.809671      0.569782      0.414109      0.235734      0.113428    -0.0650186     -0.164037     -0.335134     -0.438399     -0.438399     -0.593748     -0.734072     -0.797348        -0.878      -1.00225      -1.04827      -1.08314      -1.10658       -1e+300       -1e+300       -1e+300       -1e+300       -1e+300       -1e+300       -1e+300       -1e+300       -1e+300       -1e+300       -1e+300       -1e+300       -1e+300       -1e+300       -1e+300       -1e+300       -1e+300
         0.01       2.18432       2.16025       1.98773       2.04459       1.97731       1.71479       1.60709        1.5504       1.42613       1.22405       1.00866      0.785215      0.558928      0.260432      0.043527    -0.0962729     -0.232195     -0.486043     -0.741765     -0.961199      -1.15009      -1.38991       -1.5412      -1.73319       -1.8504      -2.02835      -2.12013      -2.26835      -2.37765      -2.37765      -2.54858      -2.67544      -2.73711      -2.81755      -2.93759      -2.98228      -3.01623       -3.0391       -1e+300       -1e+300       -1e+300       -1e+300       -1e+300       -1e+300       -1e+300       -1e+300       -1e+300       -1e+300       -1e+300       -1e+300       -1e+300       -1e+300       -1e+300       -1e+300       -1e+300
        0.012       10.0088       9.98552        9.8316       9.87473       9.80992       9.57005       9.46688       9.41237       9.29352        9.1002       8.89444       8.68125       8.46571       8.18209       7.97665       7.84464       7.71654       7.47844       7.24509       7.04536       6.87383        6.6602       6.53019       6.37697       6.28399       6.14554       6.07944       5.98119       5.85556       5.85556       5.78172       5.70792       5.68156       5.63743       5.58004       5.55915       5.54342       5.53287       -1e+300       -1e+300       -1e+300       -1e+300       -1e+300       -1e+300       -1e+300       -1e+300       -1e+300       -1e+300       -1e+300       -1e+300       -1e+300       -1e+300       -1e+300       -1e+300       -1e+300
        0.014       13.6692       13.6458       13.4998       13.5356        13.471       13.2397       13.1372        13.083       12.9649       12.7729       12.5687       12.3572       12.1436       11.8627       11.6595       11.5291       11.4026       11.1675       10.9415        10.748        10.581       10.3734       10.2494       10.1109       10.0259        9.8972         9.839       9.75514       9.61731       9.61731        9.5574       9.50261       9.48356       9.45031       9.41111       9.39707       9.38658       9.37959       -1e+300       -1e+300       -1e+300       -1e+300       -1e+300       -1e+300       -1e+300       -1e+300       -1e+300       -1e+300       -1e+300       -1e+300       -1e+300       -1e+300       -1e+300       -1e+300       -1e+300
        0.016       6.56855       6.54471       6.38272       6.43298        6.3677       6.11926       6.01527       5.96012       5.84034        5.6453       5.43747       5.22186       5.00355       4.71574       4.50681       4.37235       4.24167       3.99788        3.7507       3.54929       3.37233       3.14737       3.01354       2.83195        2.7363       2.58116       2.51135       2.40303       2.26571       2.26571       2.18331        2.1104       2.06513       2.01279       1.94033       1.91362       1.89344       1.87989       -1e+300       -1e+300       -1e+300       -1e+300       -1e+300       -1e+300       -1e+300       -1e+300       -1e+300       -1e+300       -1e+300       -1e+300       -1e+300       -1e+300       -1e+300       -1e+300       -1e+300
        0.018       2.58956       2.56557       2.39632       2.45332       2.38792       2.13174       2.02726       1.97193       1.85146       1.65507        1.4455       1.22763       1.00649      0.713977      0.500831      0.363295      0.229147    -0.0224653     -0.283338     -0.494324      -0.68153     -0.922355       -1.0678       -1.2811      -1.38857      -1.56957      -1.65259      -1.78589       -1.9327       -1.9327      -2.04373      -2.14004      -2.20708      -2.28141      -2.38822       -2.4282      -2.45858      -2.47905       -1e+300       -1e+300       -1e+300       -1e+300       -1e+300       -1e+300       -1e+300       -1e+300       -1e+300       -1e+300       -1e+300       -1e+300       -1e+300       -1e+300       -1e+300       -1e+300       -1e+300
         0.02        1.5271        1.5033        1.3328       1.39287       1.32857       1.07291      0.970299      0.915822      0.797548      0.604705      0.398871      0.184866    -0.0323514     -0.319673     -0.529014     -0.664126     -0.795414      -1.04238      -1.29976       -1.5045      -1.68685      -1.92202      -2.06217      -2.26902       -2.3714      -2.54444      -2.62252      -2.74883      -2.87641      -2.87641      -2.99641      -3.08115      -3.14424      -3.20984      -3.30507      -3.34057      -3.36748       -3.3856       -1e+300       -1e+300       -1e+300       -1e+300       -1e+300       -1e+300       -1e+300       -1e+300       -1e+300       -1e+300       -1e+300       -1e+300       -1e+300       -1e+300       -1e+300       -1e+300       -1e+300
        0.022       5.93539       5.91181       5.74955       5.80312       5.73989       5.49439       5.39381       5.34044       5.22462       5.03592       4.83477       4.62593       4.41431       4.13509       3.93229       3.80179       3.67528       3.43802       3.19549       3.00303         2.833       2.61719       2.49115       2.31798        2.2317        2.0908       2.02946       1.93569       1.82312       1.82312       1.75046       1.69759       1.66202       1.62265       1.56978        1.5501       1.53517       1.52511       -1e+300       -1e+300       -1e+300       -1e+300       -1e+300       -1e+300       -1e+300       -1e+300       -1e+300       -1e+300       -1e+300       -1e+300       -1e+300       -1e+300       -1e+300       -1e+300       -1e+300
        0.024       8.40297       8.37946       8.22308       8.27168       8.20904       7.97041       7.87089       7.81813       7.70358       7.51697       7.31807       7.11156       6.90233       6.62628       6.42582       6.29681       6.17202       5.93778       5.70047       5.51164       5.34482       5.13385       5.01126       4.84981       4.76818       4.63612       4.57961        4.4949       4.38217       4.38217       4.32479       4.28266       4.25598       4.22554       4.18744       4.17332       4.16267       4.15548       -1e+300       -1e+300       -1e+300       -1e+300       -1e+300       -1e+300       -1e+300       -1e+300       -1e+300       -1e+300       -1e+300       -1e+300       -1e+300       -1e+300       -1e+300       -1e+300       -1e+300
        0.026       4.90721       4.88341       4.72023       4.77486       4.71188       4.46596       4.36582       4.31271       4.19738       4.00938        3.8088       3.60028       3.38868       3.10893       2.90527       2.77393       2.64673       2.40697        2.1589       1.96408       1.79043       1.56832       1.43826       1.25439       1.16493       1.01577      0.950739      0.848091      0.731586      0.731586      0.653072      0.595231      0.552431      0.508112      0.446599       0.42358      0.406137      0.394374       -1e+300       -1e+300       -1e+300       -1e+300       -1e+300       -1e+300       -1e+300       -1e+300       -1e+300       -1e+300       -1e+300       -1e+300       -1e+300       -1e+300       -1e+300       -1e+300       -1e+300
        0.028      0.826158      0.802121      0.630586      0.693021       0.62986       0.37531      0.274776      0.221439      0.105601    -0.0833506     -0.285162     -0.495217     -0.708712     -0.991574      -1.19804      -1.33148      -1.46088      -1.70576      -1.96447      -2.16512      -2.34538      -2.57848      -2.71596      -2.92311      -3.02065      -3.18745      -3.26141      -3.38284      -3.49817      -3.49817      -3.60921      -3.68468      -3.74554      -3.80579      -3.89485      -3.92856      -3.95423      -3.97159       -1e+300       -1e+300       -1e+300       -1e+300       -1e+300       -1e+300       -1e+300       -1e+300       -1e+300       -1e+300       -1e+300       -1e+300       -1e+300       -1e+300       -1e+300       -1e+300       -1e+300
         0.03     0.0927821     0.0686551     -0.103653    -0.0401288     -0.103028     -0.357911      -0.45799     -0.511133     -0.626464      -0.81465      -1.01576      -1.22523      -1.43833      -1.72102      -1.92766      -2.06135      -2.19111      -2.43709      -2.69875      -2.90098      -3.08338      -3.32047      -3.46037      -3.67475      -3.77484       -3.9472      -4.02363      -4.15048      -4.26526      -4.26526      -4.37876      -4.45654      -4.52055      -4.58232      -4.67457      -4.70946      -4.73604      -4.75399       -1e+300       -1e+300       -1e+300       -1e+300       -1e+300       -1e+300       -1e+300       -1e+300       -1e+300       -1e+300       -1e+300       -1e+300       -1e+300       -1e+300       -1e+300       -1e+300       -1e+300
        0.032        -1.316      -1.34023      -1.51504      -1.44878      -1.51144      -1.76833      -1.86794      -1.92085      -2.03559      -2.22285        -2.423      -2.63153      -2.84374      -3.12544      -3.33146      -3.46482       -3.5943      -3.84008       -4.1031      -4.30518      -4.48778      -4.72566      -4.86581      -5.08363      -5.18397      -5.35695      -5.43341      -5.56061      -5.66511      -5.66511      -5.78417      -5.86025      -5.92336      -5.98325      -6.07302      -6.10702      -6.13294      -6.15044       -1e+300       -1e+300       -1e+300       -1e+300       -1e+300       -1e+300       -1e+300       -1e+300       -1e+300       -1e+300       -1e+300       -1e+300       -1e+300       -1e+300       -1e+300       -1e+300       -1e+300
        0.034       2.56115       2.53685       2.37121       2.42884       2.36652       2.11953       2.02066       1.96817       1.85436       1.66873       1.47035       1.26373       1.05352      0.774525      0.570578        0.4386      0.310521     0.0674862     -0.189761     -0.388788     -0.568473     -0.802164     -0.938985      -1.14505      -1.24195      -1.40811      -1.48098      -1.60171      -1.72431      -1.72431      -1.80697      -1.87629      -1.93393      -1.98838      -2.07024      -2.10149      -2.12543      -2.14157       -1e+300       -1e+300       -1e+300       -1e+300       -1e+300       -1e+300       -1e+300       -1e+300       -1e+300       -1e+300       -1e+300       -1e+300       -1e+300       -1e+300       -1e+300       -1e+300       -1e+300
        0.036       3.71657       3.69207       3.53104       3.58366        3.5212       3.27864       3.17956       3.12703       3.01295        2.8268       2.62777       2.42026       2.20886       1.92775       1.72174       1.58817        1.4583       1.21108      0.948194      0.743624      0.557619      0.313019      0.168406     -0.052731     -0.158529     -0.343944     -0.426969     -0.569295     -0.729172     -0.729172     -0.809134     -0.900751     -0.980532      -1.05616      -1.17498      -1.22103      -1.25659      -1.28064       -1e+300       -1e+300       -1e+300       -1e+300       -1e+300       -1e+300       -1e+300       -1e+300       -1e+300       -1e+300       -1e+300       -1e+300       -1e+300       -1e+300       -1e+300       -1e+300       -1e+300
        0.038       1.01867      0.993905      0.828422      0.885053       0.82244       0.57529      0.475925      0.423204      0.308777      0.121977    -0.0778314     -0.286375     -0.499145     -0.782617     -0.990857      -1.12616      -1.25794      -1.50964      -1.78175       -1.9921      -2.18465      -2.44046      -2.59283      -2.83604      -2.95085       -3.1548      -3.24709      -3.40883      -3.57784      -3.57784      -3.66675      -3.77439         -3.87      -3.95916      -4.10126      -4.15616      -4.19859      -4.22713       -1e+300       -1e+300       -1e+300       -1e+300       -1e+300       -1e+300       -1e+300       -1e+300       -1e+300       -1e+300       -1e+300       -1e+300       -1e+300       -1e+300       -1e+300       -1e+300       -1e+300
         0.04       3.56461        3.5397       3.38019       3.43119       3.36879       3.12823       3.02952       2.97699       2.86327       2.67779       2.47935       2.27225         2.061       1.77958       1.57287       1.43858       1.30779         1.058      0.789828       0.58152      0.390963      0.138033    -0.0117303     -0.246528     -0.358496     -0.555592     -0.643698     -0.796945      -0.96813      -0.96813      -1.02646      -1.12108      -1.20451      -1.28055      -1.40051      -1.44651      -1.48208      -1.50571       -1e+300       -1e+300       -1e+300       -1e+300       -1e+300       -1e+300       -1e+300       -1e+300       -1e+300       -1e+300       -1e+300       -1e+300       -1e+300       -1e+300       -1e+300       -1e+300       -1e+300
        0.042       7.92079       7.89576       7.74484       7.78748       7.72528       7.49398       7.39596       7.34379       7.23111       7.04729        6.8508       6.64591       6.43717       6.15952       5.95593       5.82384       5.69537       5.45044       5.19322       4.99085        4.8066       4.56358        4.4212       4.21109       4.10782       3.92914       3.85081       3.71733       3.55397       3.55397       3.50447       3.42976       3.36463       3.30607       3.21459       3.17934       3.15171       3.13371       -1e+300       -1e+300       -1e+300       -1e+300       -1e+300       -1e+300       -1e+300       -1e+300       -1e+300       -1e+300       -1e+300       -1e+300       -1e+300       -1e+300       -1e+300       -1e+300       -1e+300
        0.044       6.94825        6.9229       6.76996       6.81383       6.75132       6.51787       6.41925       6.36718       6.25415       6.06957       5.87233       5.66666       5.45703       5.17797       4.97313       4.84013       4.71065       4.46343       4.20266       3.99748       3.81016       3.56173       3.41571       3.19735       3.09015       2.90317       2.82059        2.6781       2.51367       2.51367       2.44351       2.36076       2.28716       2.22123       2.11647       2.07598       2.04392       2.02328       -1e+300       -1e+300       -1e+300       -1e+300       -1e+300       -1e+300       -1e+300       -1e+300       -1e+300       -1e+300       -1e+300       -1e+300       -1e+300       -1e+300       -1e+300       -1e+300       -1e+300
        0.046        4.7627       4.73705       4.57977       4.62753       4.56483       4.32702       4.22822       4.17641       4.06267       3.87751       3.68007       3.47393       3.26363        2.9834       2.77744       2.64356       2.51309       2.26358        1.9983       1.79005       1.59933       1.34506       1.19527      0.966089      0.854314      0.658124      0.571154      0.419821      0.262083      0.262083      0.161535     0.0715608   -0.00935804    -0.0804968     -0.194041     -0.237359     -0.271837     -0.293512       -1e+300       -1e+300       -1e+300       -1e+300       -1e+300       -1e+300       -1e+300       -1e+300       -1e+300       -1e+300       -1e+300       -1e+300       -1e+300       -1e+300       -1e+300       -1e+300       -1e+300
        0.048       2.72058       2.69469       2.53214       2.58484       2.52209       2.27923       2.18019       2.12895       2.01667       1.83062       1.63353       1.42783         1.218      0.938327      0.732739      0.599076      0.468804      0.219603     -0.048588     -0.256546     -0.446914     -0.700831     -0.849855      -1.08447      -1.19531      -1.38924      -1.47475      -1.62288      -1.76633      -1.76633      -1.85895      -1.94473      -2.02252      -2.08958      -2.19724      -2.23811      -2.27133      -2.29146       -1e+300       -1e+300       -1e+300       -1e+300       -1e+300       -1e+300       -1e+300       -1e+300       -1e+300       -1e+300       -1e+300       -1e+300       -1e+300       -1e+300       -1e+300       -1e+300       -1e+300
         0.05       6.05098       6.02478       5.87001       5.91465       5.85167       5.61658       5.51699       5.46653       5.35318       5.16857       4.97153       4.76603       4.55643       4.27705       4.07164       3.93808       3.80787       3.55878       3.29338       3.08551       2.89529       2.64159       2.49327        2.2648       2.15467       1.96266       1.87855       1.73344       1.57135       1.57135         1.509       1.42694       1.35157       1.28779       1.18331       1.14362        1.1104       1.09088       -1e+300       -1e+300       -1e+300       -1e+300       -1e+300       -1e+300       -1e+300       -1e+300       -1e+300       -1e+300       -1e+300       -1e+300       -1e+300       -1e+300       -1e+300       -1e+300       -1e+300
        0.052       1.09034       1.06368      0.898753      0.952056      0.888439      0.641653      0.542384      0.490522       0.37604      0.189429   -0.00990651     -0.218016     -0.430614     -0.714612     -0.923961      -1.06039      -1.19367      -1.44949      -1.72916      -1.94531       -2.1444      -2.41273      -2.57094      -2.83146      -2.95295      -3.16873      -3.26505      -3.43521      -3.60191      -3.60191      -3.68311      -3.78838      -3.88755      -3.97246      -4.11531       -4.1699      -4.21596      -4.24319       -1e+300       -1e+300       -1e+300       -1e+300       -1e+300       -1e+300       -1e+300       -1e+300       -1e+300       -1e+300       -1e+300       -1e+300       -1e+300       -1e+300       -1e+300       -1e+300       -1e+300
        0.054      0.368139      0.341274       0.17479      0.229854      0.166545    -0.0802392     -0.179785     -0.231643     -0.345416     -0.530303      -0.72798     -0.934342      -1.14514      -1.42671      -1.63427      -1.76954      -1.90171      -2.15538       -2.4335       -2.6478      -2.84513      -3.11101      -3.26712      -3.52645      -3.64638      -3.85893      -3.95342      -4.11977      -4.27433      -4.27433      -4.36282      -4.46533      -4.56306      -4.64529      -4.78612      -4.83955      -4.88595      -4.91255       -1e+300       -1e+300       -1e+300       -1e+300       -1e+300       -1e+300       -1e+300       -1e+300       -1e+300       -1e+300       -1e+300       -1e+300       -1e+300       -1e+300       -1e+300       -1e+300       -1e+300
        0.056       12.1895       12.1625       12.0206       12.0521       11.9894       11.7682       11.6706       11.6192       11.5073       11.3261       11.1326       10.9311       10.7258       10.4526        10.252       10.1218       9.99494       9.75274       9.50328       9.30304       9.12095       8.87996       8.74202       8.54724       8.44839       8.28029       8.20911       8.09109       7.94447       7.94447       7.87602       7.81981       7.76496        7.7245       7.65236       7.62631       7.59945       7.58751       -1e+300       -1e+300       -1e+300       -1e+300       -1e+300       -1e+300       -1e+300       -1e+300       -1e+300       -1e+300       -1e+300       -1e+300       -1e+300       -1e+300       -1e+300       -1e+300       -1e+300
        0.058       19.2967       19.2696        19.142       19.1593        19.097       18.8911       18.7944       18.7431       18.6327       18.4535       18.2625       18.0637       17.8616       17.5932       17.3966       17.2692       17.1453       16.9095        16.676       16.4836       16.3101       16.0834       15.9563       15.7985       15.7121       15.5709       15.5141       15.4266       15.2896       15.2896       15.2341       15.2069       15.1789       15.1653       15.1359       15.1271       15.1119       15.1086       -1e+300       -1e+300       -1e+300       -1e+300       -1e+300       -1e+300       -1e+300       -1e+300       -1e+300       -1e+300       -1e+300       -1e+300       -1e+300       -1e+300       -1e+300       -1e+300       -1e+300
         0.06       7.58335       7.55571       7.40356       7.44402       7.38092       7.14965       7.05178       6.99964       6.88776       6.70588       6.51157       6.30898       6.10228       5.82655       5.62358       5.49144       5.36245        5.1155       4.85365       4.64716       4.45845       4.20722       4.06332       3.84247       3.73669       3.55608       3.47972       3.35366       3.22814       3.22814       3.15609       3.09615       3.03652       2.99623       2.92011       2.89454       2.86474        2.8521       -1e+300       -1e+300       -1e+300       -1e+300       -1e+300       -1e+300       -1e+300       -1e+300       -1e+300       -1e+300       -1e+300       -1e+300       -1e+300       -1e+300       -1e+300       -1e+300       -1e+300
        0.062       6.18026       6.15235       5.99756       6.03991       5.97667       5.74292       5.64492        5.5926       5.48056       5.29845        5.1038        4.9007       4.69329       4.41621       4.21191       4.07871       3.94853       3.69893       3.43252       3.22257       3.03022       2.77342       2.62628       2.39611       2.28656       2.09913        2.0199       1.88933          1.77          1.77       1.68362       1.62083       1.55728       1.51583       1.43507        1.4087       1.37574       1.36175       -1e+300       -1e+300       -1e+300       -1e+300       -1e+300       -1e+300       -1e+300       -1e+300       -1e+300       -1e+300       -1e+300       -1e+300       -1e+300       -1e+300       -1e+300       -1e+300       -1e+300
        0.064       10.9754       10.9473       10.8022       10.8349       10.7718       10.5487       10.4512       10.3991       10.2879       10.1071       9.91403       9.71262       9.50702       9.23247       9.03013       8.89826       8.76941       8.52267        8.2658        8.0592       7.87051          7.62       7.47796       7.26983       7.16577       6.99021       6.91751       6.80119       6.68278       6.68278       6.57792       6.52446       6.46709       6.43302       6.36002       6.33719       6.30374       6.28999       -1e+300       -1e+300       -1e+300       -1e+300       -1e+300       -1e+300       -1e+300       -1e+300       -1e+300       -1e+300       -1e+300       -1e+300       -1e+300       -1e+300       -1e+300       -1e+300       -1e+300
        0.066       2.05545       2.02688         1.864       1.91359        1.8501       1.60863       1.51053       1.45805       1.34598       1.16366      0.968497      0.764464      0.555551      0.275394     0.0678687    -0.0679493     -0.201125     -0.457588     -0.737996     -0.957587      -1.16047      -1.43412      -1.59255      -1.85592       -1.9799       -2.1969      -2.29061      -2.44908      -2.57737      -2.57737      -2.71012      -2.80672      -2.90685      -2.97977      -3.12054      -3.16958      -3.22524      -3.25528       -1e+300       -1e+300       -1e+300       -1e+300       -1e+300       -1e+300       -1e+300       -1e+300       -1e+300       -1e+300       -1e+300       -1e+300       -1e+300       -1e+300       -1e+300       -1e+300       -1e+300
        0.068       2.85481       2.82602       2.66438       2.71268       2.64942       2.40997       2.31241       2.26021       2.14884       1.96771       1.77381       1.57105       1.36336       1.08465      0.878035      0.742723      0.609987      0.354315     0.0739318     -0.145172     -0.347449     -0.619649     -0.776432      -1.03881      -1.16127      -1.37428      -1.46502      -1.61559      -1.74301      -1.74301      -1.84602      -1.93426      -2.02962      -2.09546      -2.22472      -2.26835      -2.32392      -2.35284       -1e+300       -1e+300       -1e+300       -1e+300       -1e+300       -1e+300       -1e+300       -1e+300       -1e+300       -1e+300       -1e+300       -1e+300       -1e+300       -1e+300       -1e+300       -1e+300       -1e+300
         0.07       9.17932       9.15023       9.00166       9.03703       8.97378       8.74777       8.65062       8.59862        8.4878       8.30767       8.11488       7.91331       7.70682        7.4297       7.22421       7.08962       6.95761       6.70349       6.43312       6.21588       6.01593       5.74837       5.59518       5.35728       5.23912       5.03587       4.95127       4.81525       4.68143       4.68143       4.55756       4.47945       4.38973       4.32976       4.21258       4.17316       4.11798       4.08862       -1e+300       -1e+300       -1e+300       -1e+300       -1e+300       -1e+300       -1e+300       -1e+300       -1e+300       -1e+300       -1e+300       -1e+300       -1e+300       -1e+300       -1e+300       -1e+300       -1e+300