# Probe 0 (-0.35 0 0.005)
# Probe 1 (-0.35 0 0.0155)
# Probe 2 (-0.35 0 0.02653)
# Probe 3 (-0.35 0 0.0381)
# Probe 4 (-0.35 0 0.05026)
# Probe 5 (-0.35 0 0.06302)
# Probe 6 (-0.35 0 0.07642)
# Probe 7 (-0.35 0 0.08)
# Probe 8 (-0.35 0 0.09049)
# Probe 9 (-0.35 0 0.10527)
# Probe 10 (-0.35 0 0.12078)
# Probe 11 (-0.35 0 0.13707)
# Probe 12 (-0.35 0 0.15417)
# Probe 13 (-0.35 0 0.17213)
# Probe 14 (-0.35 0 0.19099)
# Probe 15 (-0.35 0 0.2)
# Probe 16 (-0.35 0 0.21079)
# Probe 17 (-0.35 0 0.23157)
# Probe 18 (-0.35 0 0.2534)
# Probe 19 (-0.35 0 0.27632)
# Probe 20 (-0.35 0 0.30039)
# Probe 21 (-0.35 0 0.32566)
# Probe 22 (-0.35 0 0.35219)
# Probe 23 (-0.35 0 0.38005)
# Probe 24 (-0.35 0 0.4093)
# Probe 25 (-0.35 0 0.44002)
# Probe 26 (-0.35 0 0.47227)
# Probe 27 (-0.35 0 0.50613)
# Probe 28 (-0.35 0 0.54169)
# Probe 29 (-0.35 0 0.57903)
# Probe 30 (-0.35 0 0.61823)
# Probe 31 (-0.35 0 0.65939)
# Probe 32 (-0.35 0 0.70261)
# Probe 33 (-0.35 0 0.74799)
# Probe 34 (-0.35 0 0.79564)
# Probe 35 (-0.35 0 0.84567)
# Probe 36 (-0.35 0 0.8982)
# Probe 37 (-0.35 0 0.95336)
# Probe 38 (-0.35 0 1.01128)
# Probe 39 (-0.35 0 1.0721)
# Probe 40 (-0.35 0 1.13595)
# Probe 41 (-0.35 0 1.203)
# Probe 42 (-0.35 0 1.2734)
# Probe 43 (-0.35 0 1.34732)
# Probe 44 (-0.35 0 1.42493)
# Probe 45 (-0.35 0 1.50643)
# Probe 46 (-0.35 0 1.592)
# Probe 47 (-0.35 0 1.68185)
# Probe 48 (-0.35 0 1.77619)
# Probe 49 (-0.35 0 1.87525)
# Probe 50 (-0.35 0 1.97927)
# Probe 51 (-0.35 0 2.08848)
# Probe 52 (-0.35 0 2.20315)
# Probe 53 (-0.35 0 2.32356)
# Probe 54 (-0.35 0 2.44999)
#       Probe             0             1             2             3             4             5             6             7             8             9            10            11            12            13            14            15            16            17            18            19            20            21            22            23            24            25            26            27            28            29            30            31            32            33            34            35            36            37            38            39            40            41            42            43            44            45            46            47            48            49            50            51            52            53            54
#        Time
        0.002             (6.83799 -0.0636916 0.00611341)             (6.84116 -0.0637112 0.0191763)             (6.85711 -0.064705 0.0256944)             (6.8556 -0.0638363 0.0358357)             (6.8646 -0.0639222 0.0373927)             (6.89194 -0.0650087 0.0596626)             (6.90632 -0.0651544 0.0605104)             (6.91387 -0.0652252 0.0625121)             (6.92986 -0.0653777 0.0661405)             (6.95583 -0.0656305 0.0689697)             (6.98347 -0.0659083 0.0687046)             (7.01204 -0.0662067 0.0654837)             (7.04093 -0.0665217 0.0595675)             (7.07902 -0.0669619 0.0480906)             (7.10677 -0.0673039 0.0373075)             (7.12473 -0.0675354 0.0293095)             (7.14219 -0.0677669 0.0205927)             (7.17471 -0.068304 -0.00182474)             (7.20907 -0.0682519 -0.00927927)             (7.2383 -0.0688417 -0.0361849)             (7.26409 -0.0695013 -0.0598316)             (7.2997 -0.0704606 -0.146215)             (7.32346 -0.0710392 -0.634326)             (7.35749 -0.0723713 -0.137262)             (7.37745 -0.0731188 -0.138537)             (7.4142 -0.074529 -0.152724)             (7.43202 -0.0752386 -0.167668)             (7.46505 -0.0764809 -0.145302)             (7.50704 -0.0756178 -0.16173)             (7.50704 -0.0756178 -0.16173)             (7.52615 -0.0773393 -0.176828)             (7.55239 -0.0781696 -0.163977)             (7.57632 -0.078969 -0.154849)             (7.59799 -0.0797118 -0.141481)             (7.63351 -0.0809486 -0.106011)             (7.6469 -0.0814162 -0.0847618)             (7.65713 -0.0817721 -0.0617889)             (7.66403 -0.0820118 -0.0375737)             (-1e+300 -1e+300 -1e+300)             (-1e+300 -1e+300 -1e+300)             (-1e+300 -1e+300 -1e+300)             (-1e+300 -1e+300 -1e+300)             (-1e+300 -1e+300 -1e+300)             (-1e+300 -1e+300 -1e+300)             (-1e+300 -1e+300 -1e+300)             (-1e+300 -1e+300 -1e+300)             (-1e+300 -1e+300 -1e+300)             (-1e+300 -1e+300 -1e+300)             (-1e+300 -1e+300 -1e+300)             (-1e+300 -1e+300 -1e+300)             (-1e+300 -1e+300 -1e+300)             (-1e+300 -1e+300 -1e+300)             (-1e+300 -1e+300 -1e+300)             (-1e+300 -1e+300 -1e+300)             (-1e+300 -1e+300 -1e+300)
        0.004             (6.82626 -0.06859 0.00626259)             (6.82952 -0.0686136 0.0196158)             (6.84598 -0.0696729 0.0270237)             (6.84441 -0.0687472 0.0367348)             (6.85376 -0.0688294 0.0412073)             (6.88162 -0.0700036 0.061668)             (6.8964 -0.0701408 0.0630955)             (6.90443 -0.0702044 0.0638927)             (6.92088 -0.0703637 0.0679148)             (6.94769 -0.0706238 0.0708522)             (6.97624 -0.0709096 0.0705892)             (7.0058 -0.071217 0.0672784)             (7.03569 -0.0715426 0.0611828)             (7.07515 -0.0719979 0.0493391)             (7.10391 -0.0723537 0.0382005)             (7.12252 -0.0725945 0.0299304)             (7.14063 -0.0728291 0.0205922)             (7.17519 -0.0733619 -0.00166937)             (7.2108 -0.0733488 -0.0140712)             (7.24071 -0.073976 -0.0371901)             (7.26758 -0.0746585 -0.0619968)             (7.30468 -0.07566 -0.118669)             (7.32864 -0.0762801 -0.356439)             (7.36401 -0.0776901 -0.142724)             (7.38515 -0.0784725 -0.141906)             (7.42304 -0.0799227 -0.15805)             (7.44163 -0.0806541 -0.175403)             (7.4754 -0.0819384 -0.157392)             (7.51935 -0.0809851 -0.165909)             (7.51935 -0.0809851 -0.165909)             (7.53849 -0.0825746 -0.185022)             (7.56613 -0.0834203 -0.168484)             (7.59081 -0.0842196 -0.160531)             (7.61326 -0.0849566 -0.146461)             (7.65004 -0.0861672 -0.109725)             (7.66391 -0.0866193 -0.0877241)             (7.6745 -0.0869612 -0.0639442)             (7.68165 -0.0871904 -0.0388827)             (-1e+300 -1e+300 -1e+300)             (-1e+300 -1e+300 -1e+300)             (-1e+300 -1e+300 -1e+300)             (-1e+300 -1e+300 -1e+300)             (-1e+300 -1e+300 -1e+300)             (-1e+300 -1e+300 -1e+300)             (-1e+300 -1e+300 -1e+300)             (-1e+300 -1e+300 -1e+300)             (-1e+300 -1e+300 -1e+300)             (-1e+300 -1e+300 -1e+300)             (-1e+300 -1e+300 -1e+300)             (-1e+300 -1e+300 -1e+300)             (-1e+300 -1e+300 -1e+300)             (-1e+300 -1e+300 -1e+300)             (-1e+300 -1e+300 -1e+300)             (-1e+300 -1e+300 -1e+300)             (-1e+300 -1e+300 -1e+300)
        0.006             (6.81246 -0.0729948 0.00635172)             (6.81583 -0.0730413 0.0200338)             (6.83271 -0.0741597 0.0279976)             (6.83099 -0.0731842 0.0376701)             (6.84063 -0.0732569 0.0435493)             (6.86889 -0.0745136 0.0624004)             (6.88388 -0.0746454 0.0647687)             (6.89253 -0.0746845 0.0640514)             (6.90924 -0.0748522 0.0686422)             (6.9367 -0.075115 0.0716797)             (6.96602 -0.0754016 0.0713556)             (6.9964 -0.0757104 0.0679226)             (7.02717 -0.0760384 0.0616409)             (7.06783 -0.0764959 0.0494535)             (7.0975 -0.0768542 0.0379961)             (7.11672 -0.0770969 0.0294859)             (7.13547 -0.0773356 0.0197392)             (7.17128 -0.0778595 -0.00217734)             (7.20773 -0.0778861 -0.0197959)             (7.23901 -0.0785036 -0.0404329)             (7.26712 -0.0791842 -0.0650553)             (7.30563 -0.0801924 -0.105757)             (7.33023 -0.0808196 -0.233194)             (7.36696 -0.0822817 -0.147381)             (7.38905 -0.083071 -0.14725)             (7.42828 -0.0845168 -0.164861)             (7.44759 -0.0852387 -0.182913)             (7.48274 -0.0865375 -0.170917)             (7.52827 -0.0854372 -0.174535)             (7.52827 -0.0854372 -0.174535)             (7.54801 -0.0868995 -0.192088)             (7.57699 -0.0877134 -0.173844)             (7.60243 -0.0884709 -0.167148)             (7.62578 -0.0891655 -0.152009)             (7.66401 -0.0902889 -0.113868)             (7.67843 -0.0907021 -0.0910272)             (7.68943 -0.0910121 -0.0663471)             (7.69686 -0.0912187 -0.0403418)             (-1e+300 -1e+300 -1e+300)             (-1e+300 -1e+300 -1e+300)             (-1e+300 -1e+300 -1e+300)             (-1e+300 -1e+300 -1e+300)             (-1e+300 -1e+300 -1e+300)             (-1e+300 -1e+300 -1e+300)             (-1e+300 -1e+300 -1e+300)             (-1e+300 -1e+300 -1e+300)             (-1e+300 -1e+300 -1e+300)             (-1e+300 -1e+300 -1e+300)             (-1e+300 -1e+300 -1e+300)             (-1e+300 -1e+300 -1e+300)             (-1e+300 -1e+300 -1e+300)             (-1e+300 -1e+300 -1e+300)             (-1e+300 -1e+300 -1e+300)             (-1e+300 -1e+300 -1e+300)             (-1e+300 -1e+300 -1e+300)
        0.008             (6.7929 -0.0787813 0.00646412)             (6.79643 -0.0788304 0.0206391)             (6.8136 -0.0800123 0.0287399)             (6.81172 -0.0789839 0.0386643)             (6.82158 -0.0790527 0.0454878)             (6.85046 -0.0803827 0.0628379)             (6.86561 -0.0805227 0.066015)             (6.87465 -0.0805557 0.0641054)             (6.89165 -0.0807325 0.0691122)             (6.91968 -0.0810095 0.0723924)             (6.9497 -0.0813103 0.0719964)             (6.98083 -0.0816356 0.0684502)             (7.01239 -0.081982 0.0620001)             (7.05414 -0.0824671 0.0495066)             (7.08465 -0.0828468 0.0377627)             (7.10442 -0.083106 0.0290344)             (7.12375 -0.0833687 0.0190558)             (7.16053 -0.0838976 -0.00317933)             (7.19806 -0.0840082 -0.0229382)             (7.23038 -0.0846724 -0.0434007)             (7.25959 -0.0853925 -0.067889)             (7.29951 -0.0864699 -0.101152)             (7.32457 -0.0871451 -0.177181)             (7.36286 -0.0887686 -0.151443)             (7.38564 -0.0896108 -0.152415)             (7.42618 -0.091156 -0.171178)             (7.44607 -0.0919188 -0.189134)             (7.48264 -0.0933188 -0.182391)             (7.52972 -0.092159 -0.182838)             (7.52972 -0.092159 -0.182838)             (7.54961 -0.0935785 -0.197282)             (7.57961 -0.0944495 -0.178798)             (7.60574 -0.095248 -0.172778)             (7.62987 -0.0959742 -0.156609)             (7.66932 -0.0971286 -0.11731)             (7.68419 -0.0975466 -0.0937699)             (7.69554 -0.0978579 -0.0683403)             (7.70319 -0.0980642 -0.0415512)             (-1e+300 -1e+300 -1e+300)             (-1e+300 -1e+300 -1e+300)             (-1e+300 -1e+300 -1e+300)             (-1e+300 -1e+300 -1e+300)             (-1e+300 -1e+300 -1e+300)             (-1e+300 -1e+300 -1e+300)             (-1e+300 -1e+300 -1e+300)             (-1e+300 -1e+300 -1e+300)             (-1e+300 -1e+300 -1e+300)             (-1e+300 -1e+300 -1e+300)             (-1e+300 -1e+300 -1e+300)             (-1e+300 -1e+300 -1e+300)             (-1e+300 -1e+300 -1e+300)             (-1e+300 -1e+300 -1e+300)             (-1e+300 -1e+300 -1e+300)             (-1e+300 -1e+300 -1e+300)             (-1e+300 -1e+300 -1e+300)
         0.01             (6.77054 -0.0848235 0.00657366)             (6.77425 -0.0848461 0.0212789)             (6.79162 -0.0860978 0.029305)             (6.7897 -0.0850099 0.0395735)             (6.79968 -0.0850882 0.0471137)             (6.82948 -0.0864569 0.0630833)             (6.84481 -0.0866107 0.0668583)             (6.85387 -0.0866811 0.0642553)             (6.87132 -0.0868584 0.0693971)             (6.89997 -0.0871464 0.0729676)             (6.9307 -0.0874682 0.0724628)             (6.9626 -0.0878165 0.0687793)             (6.99498 -0.0881879 0.0621353)             (7.03787 -0.0887115 0.0493008)             (7.06923 -0.0891221 0.0372439)             (7.08957 -0.0894037 0.0282814)             (7.10947 -0.0896877 0.0181077)             (7.14734 -0.0902732 -0.00475025)             (7.18608 -0.0904493 -0.0258983)             (7.2193 -0.0911815 -0.0466474)             (7.24952 -0.0919597 -0.0712391)             (7.29089 -0.0931333 -0.101708)             (7.31661 -0.0938742 -0.153332)             (7.35645 -0.0957044 -0.156219)             (7.37991 -0.0966204 -0.158298)             (7.42189 -0.09831 -0.178163)             (7.44239 -0.0991376 -0.195901)             (7.48036 -0.100676 -0.193832)             (7.52908 -0.0995032 -0.191092)             (7.52908 -0.0995032 -0.191092)             (7.54913 -0.100897 -0.202895)             (7.58011 -0.101861 -0.184565)             (7.607 -0.102734 -0.178655)             (7.63197 -0.10352 -0.161542)             (7.67267 -0.104748 -0.121009)             (7.688 -0.105187 -0.0967116)             (7.69968 -0.10551 -0.0704748)             (7.70757 -0.105724 -0.0428449)             (-1e+300 -1e+300 -1e+300)             (-1e+300 -1e+300 -1e+300)             (-1e+300 -1e+300 -1e+300)             (-1e+300 -1e+300 -1e+300)             (-1e+300 -1e+300 -1e+300)             (-1e+300 -1e+300 -1e+300)             (-1e+300 -1e+300 -1e+300)             (-1e+300 -1e+300 -1e+300)             (-1e+300 -1e+300 -1e+300)             (-1e+300 -1e+300 -1e+300)             (-1e+300 -1e+300 -1e+300)             (-1e+300 -1e+300 -1e+300)             (-1e+300 -1e+300 -1e+300)             (-1e+300 -1e+300 -1e+300)             (-1e+300 -1e+300 -1e+300)             (-1e+300 -1e+300 -1e+300)             (-1e+300 -1e+300 -1e+300)
        0.012             (6.7548 -0.0892888 0.00653309)             (6.75859 -0.0893255 0.0216152)             (6.77602 -0.0906429 0.0294189)             (6.77436 -0.089487 0.0398137)             (6.78435 -0.089582 0.0477541)             (6.81495 -0.0909572 0.0624669)             (6.83051 -0.091115 0.0665363)             (6.83937 -0.0912439 0.0636099)             (6.85727 -0.0914095 0.0686265)             (6.88655 -0.0916863 0.0722817)             (6.91794 -0.0920145 0.0715375)             (6.95058 -0.092368 0.0676077)             (6.98375 -0.0927451 0.0606772)             (7.02775 -0.0932773 0.0473976)             (7.05998 -0.0936946 0.0349625)             (7.08091 -0.0939788 0.0257284)             (7.1014 -0.0942707 0.0153166)             (7.14046 -0.0948715 -0.0082497)             (7.18048 -0.0950662 -0.0307066)             (7.21468 -0.0958195 -0.0519015)             (7.246 -0.0966111 -0.0767588)             (7.28902 -0.0978078 -0.106766)             (7.31564 -0.0985601 -0.147261)             (7.35716 -0.100484 -0.163468)             (7.38146 -0.101415 -0.16672)             (7.42521 -0.103127 -0.187599)             (7.44652 -0.103958 -0.205228)             (7.48622 -0.105503 -0.206657)             (7.53688 -0.104235 -0.201404)             (7.53688 -0.104235 -0.201404)             (7.55773 -0.105447 -0.21105)             (7.58998 -0.106384 -0.192833)             (7.61799 -0.107215 -0.186602)             (7.64408 -0.107955 -0.168448)             (7.68648 -0.109078 -0.126185)             (7.70244 -0.109467 -0.100829)             (7.71461 -0.10975 -0.0734628)             (7.72282 -0.109935 -0.044656)             (-1e+300 -1e+300 -1e+300)             (-1e+300 -1e+300 -1e+300)             (-1e+300 -1e+300 -1e+300)             (-1e+300 -1e+300 -1e+300)             (-1e+300 -1e+300 -1e+300)             (-1e+300 -1e+300 -1e+300)             (-1e+300 -1e+300 -1e+300)             (-1e+300 -1e+300 -1e+300)             (-1e+300 -1e+300 -1e+300)             (-1e+300 -1e+300 -1e+300)             (-1e+300 -1e+300 -1e+300)             (-1e+300 -1e+300 -1e+300)             (-1e+300 -1e+300 -1e+300)             (-1e+300 -1e+300 -1e+300)             (-1e+300 -1e+300 -1e+300)             (-1e+300 -1e+300 -1e+300)             (-1e+300 -1e+300 -1e+300)
        0.014             (6.74309 -0.0938572 0.00645543)             (6.74684 -0.0939207 0.0216714)             (6.76428 -0.0953019 0.0291807)             (6.76306 -0.0940616 0.0394953)             (6.77305 -0.0941712 0.0475867)             (6.8041 -0.0955835 0.0612575)             (6.81991 -0.0957382 0.0653632)             (6.8286 -0.0959093 0.0623033)             (6.84689 -0.0960669 0.0670694)             (6.87673 -0.0963324 0.0705791)             (6.90871 -0.0966632 0.0695006)             (6.942 -0.0970184 0.0652403)             (6.97587 -0.0973972 0.0579582)             (7.02088 -0.0979319 0.0441745)             (7.05392 -0.0983503 0.0313333)             (7.07539 -0.0986359 0.0218238)             (7.09647 -0.0989225 0.0111765)             (7.13667 -0.0995331 -0.0131798)             (7.17796 -0.099743 -0.0368308)             (7.21316 -0.100506 -0.0584166)             (7.24559 -0.101302 -0.0836015)             (7.29035 -0.102506 -0.114045)             (7.31799 -0.103259 -0.149563)             (7.36129 -0.105252 -0.172029)             (7.38652 -0.106185 -0.176429)             (7.43224 -0.107891 -0.198163)             (7.45447 -0.108712 -0.215754)             (7.49606 -0.110228 -0.219775)             (7.54888 -0.10881 -0.212496)             (7.54888 -0.10881 -0.212496)             (7.5707 -0.109868 -0.220372)             (7.6044 -0.110746 -0.202185)             (7.63372 -0.111505 -0.19539)             (7.66106 -0.112166 -0.176209)             (7.7054 -0.113123 -0.131985)             (7.72209 -0.113439 -0.105439)             (7.73481 -0.113663 -0.0768074)             (7.74339 -0.113805 -0.0466828)             (-1e+300 -1e+300 -1e+300)             (-1e+300 -1e+300 -1e+300)             (-1e+300 -1e+300 -1e+300)             (-1e+300 -1e+300 -1e+300)             (-1e+300 -1e+300 -1e+300)             (-1e+300 -1e+300 -1e+300)             (-1e+300 -1e+300 -1e+300)             (-1e+300 -1e+300 -1e+300)             (-1e+300 -1e+300 -1e+300)             (-1e+300 -1e+300 -1e+300)             (-1e+300 -1e+300 -1e+300)             (-1e+300 -1e+300 -1e+300)             (-1e+300 -1e+300 -1e+300)             (-1e+300 -1e+300 -1e+300)             (-1e+300 -1e+300 -1e+300)             (-1e+300 -1e+300 -1e+300)             (-1e+300 -1e+300 -1e+300)
        0.016             (6.72496 -0.0977832 0.00646894)             (6.72865 -0.0978498 0.0216483)             (6.74612 -0.0992761 0.0288862)             (6.74534 -0.0979675 0.039101)             (6.75539 -0.0980844 0.0472442)             (6.78666 -0.0995579 0.0601216)             (6.80273 -0.0997113 0.0641535)             (6.81141 -0.0998977 0.0610327)             (6.83001 -0.100058 0.0655576)             (6.86037 -0.100328 0.0688392)             (6.89289 -0.100669 0.0674349)             (6.92678 -0.101035 0.0628469)             (6.96131 -0.101426 0.05522)             (7.00727 -0.10198 0.0409482)             (7.04106 -0.102414 0.0277193)             (7.06304 -0.102713 0.0179509)             (7.08465 -0.103011 0.00712341)             (7.12591 -0.103645 -0.0179824)             (7.1684 -0.103897 -0.0427926)             (7.20457 -0.104697 -0.0647331)             (7.23804 -0.105526 -0.0902294)             (7.28444 -0.106785 -0.121424)             (7.31306 -0.107575 -0.153642)             (7.35801 -0.109699 -0.180201)             (7.38415 -0.110673 -0.185708)             (7.43173 -0.112455 -0.208129)             (7.45486 -0.11331 -0.225701)             (7.49824 -0.114887 -0.231719)             (7.55315 -0.113435 -0.222815)             (7.55315 -0.113435 -0.222815)             (7.57585 -0.114413 -0.229104)             (7.61092 -0.115323 -0.210986)             (7.64148 -0.116095 -0.203574)             (7.67 -0.116756 -0.183477)             (7.71618 -0.117681 -0.137406)             (7.73355 -0.117975 -0.109744)             (7.74679 -0.118178 -0.0799269)             (7.7557 -0.118305 -0.0485715)             (-1e+300 -1e+300 -1e+300)             (-1e+300 -1e+300 -1e+300)             (-1e+300 -1e+300 -1e+300)             (-1e+300 -1e+300 -1e+300)             (-1e+300 -1e+300 -1e+300)             (-1e+300 -1e+300 -1e+300)             (-1e+300 -1e+300 -1e+300)             (-1e+300 -1e+300 -1e+300)             (-1e+300 -1e+300 -1e+300)             (-1e+300 -1e+300 -1e+300)             (-1e+300 -1e+300 -1e+300)             (-1e+300 -1e+300 -1e+300)             (-1e+300 -1e+300 -1e+300)             (-1e+300 -1e+300 -1e+300)             (-1e+300 -1e+300 -1e+300)             (-1e+300 -1e+300 -1e+300)             (-1e+300 -1e+300 -1e+300)
        0.018             (6.70358 -0.101792 0.00650464)             (6.70726 -0.101854 0.0215516)             (6.72474 -0.103326 0.0285371)             (6.72431 -0.101959 0.0386554)             (6.73445 -0.102077 0.0467527)             (6.76588 -0.103618 0.0589887)             (6.78218 -0.10377 0.0628894)             (6.79091 -0.103958 0.0597172)             (6.80978 -0.104124 0.0640161)             (6.84059 -0.1044 0.0670343)             (6.87361 -0.10475 0.0653193)             (6.90806 -0.105127 0.0604193)             (6.9432 -0.10553 0.0524696)             (6.99005 -0.106102 0.0377459)             (7.02453 -0.106553 0.0241617)             (7.04699 -0.106861 0.0141572)             (7.06909 -0.107168 0.00313827)             (7.11137 -0.107842 -0.0225857)             (7.15497 -0.108144 -0.0484977)             (7.19208 -0.108984 -0.0707524)             (7.22655 -0.109853 -0.0965314)             (7.27449 -0.111177 -0.128535)             (7.30406 -0.112017 -0.158685)             (7.35055 -0.114294 -0.187866)             (7.37756 -0.115321 -0.194411)             (7.4269 -0.117205 -0.217374)             (7.45088 -0.11811 -0.234923)             (7.49591 -0.119779 -0.242498)             (7.5528 -0.118338 -0.232233)             (7.5528 -0.118338 -0.232233)             (7.57622 -0.119216 -0.237111)             (7.61253 -0.120192 -0.219084)             (7.64424 -0.121013 -0.211034)             (7.67382 -0.121706 -0.190123)             (7.72166 -0.122658 -0.142342)             (7.73965 -0.122955 -0.113656)             (7.75334 -0.123158 -0.0827572)             (7.76256 -0.123284 -0.0502826)             (-1e+300 -1e+300 -1e+300)             (-1e+300 -1e+300 -1e+300)             (-1e+300 -1e+300 -1e+300)             (-1e+300 -1e+300 -1e+300)             (-1e+300 -1e+300 -1e+300)             (-1e+300 -1e+300 -1e+300)             (-1e+300 -1e+300 -1e+300)             (-1e+300 -1e+300 -1e+300)             (-1e+300 -1e+300 -1e+300)             (-1e+300 -1e+300 -1e+300)             (-1e+300 -1e+300 -1e+300)             (-1e+300 -1e+300 -1e+300)             (-1e+300 -1e+300 -1e+300)             (-1e+300 -1e+300 -1e+300)             (-1e+300 -1e+300 -1e+300)             (-1e+300 -1e+300 -1e+300)             (-1e+300 -1e+300 -1e+300)
         0.02             (6.68097 -0.10674 0.00652649)             (6.68466 -0.106807 0.0213123)             (6.70211 -0.108331 0.0280077)             (6.70198 -0.10691 0.0379612)             (6.71221 -0.107027 0.0459055)             (6.74376 -0.108636 0.0574853)             (6.76026 -0.10879 0.0611737)             (6.76907 -0.108975 0.0579173)             (6.78819 -0.109146 0.0619442)             (6.81942 -0.109431 0.0646053)             (6.85292 -0.10979 0.0625136)             (6.8879 -0.110179 0.0572419)             (6.92363 -0.110596 0.0489174)             (6.97133 -0.11119 0.0336854)             (7.00651 -0.111661 0.0197103)             (7.02945 -0.111986 0.00943781)             (7.05201 -0.112309 -0.00176857)             (7.09531 -0.113011 -0.0281185)             (7.14003 -0.113385 -0.0551586)             (7.17812 -0.114276 -0.0777586)             (7.21363 -0.115196 -0.103844)             (7.26316 -0.116604 -0.136728)             (7.29374 -0.117511 -0.165889)             (7.34185 -0.119977 -0.196606)             (7.36979 -0.121074 -0.204174)             (7.421 -0.123091 -0.227629)             (7.44589 -0.124061 -0.245149)             (7.4927 -0.125852 -0.253936)             (7.55174 -0.124414 -0.24251)             (7.55174 -0.124414 -0.24251)             (7.57586 -0.125215 -0.246024)             (7.61351 -0.12627 -0.228035)             (7.64648 -0.127145 -0.219245)             (7.67719 -0.12787 -0.197476)             (7.72685 -0.128836 -0.147787)             (7.74551 -0.129128 -0.117969)             (7.7597 -0.129323 -0.0858766)             (7.76925 -0.129441 -0.0521677)             (-1e+300 -1e+300 -1e+300)             (-1e+300 -1e+300 -1e+300)             (-1e+300 -1e+300 -1e+300)             (-1e+300 -1e+300 -1e+300)             (-1e+300 -1e+300 -1e+300)             (-1e+300 -1e+300 -1e+300)             (-1e+300 -1e+300 -1e+300)             (-1e+300 -1e+300 -1e+300)             (-1e+300 -1e+300 -1e+300)             (-1e+300 -1e+300 -1e+300)             (-1e+300 -1e+300 -1e+300)             (-1e+300 -1e+300 -1e+300)             (-1e+300 -1e+300 -1e+300)             (-1e+300 -1e+300 -1e+300)             (-1e+300 -1e+300 -1e+300)             (-1e+300 -1e+300 -1e+300)             (-1e+300 -1e+300 -1e+300)
        0.022             (6.66145 -0.111039 0.00652672)             (6.66516 -0.111107 0.0208852)             (6.68251 -0.112674 0.0272089)             (6.68271 -0.111214 0.0368731)             (6.69305 -0.111331 0.0445264)             (6.72467 -0.112995 0.0553598)             (6.74137 -0.113152 0.0587253)             (6.75026 -0.113333 0.0553365)             (6.76962 -0.113511 0.0590025)             (6.80127 -0.113807 0.06116)             (6.83522 -0.114178 0.0585689)             (6.87074 -0.11458 0.0528093)             (6.90706 -0.115013 0.0440031)             (6.95564 -0.115633 0.0281352)             (6.99153 -0.116126 0.013687)             (7.01497 -0.116465 0.00309812)             (7.03801 -0.116815 -0.00841221)             (7.08239 -0.117554 -0.0354159)             (7.12829 -0.118001 -0.0636503)             (7.16745 -0.118951 -0.0866996)             (7.2041 -0.119928 -0.113168)             (7.25537 -0.121431 -0.147039)             (7.28709 -0.122417 -0.176167)             (7.33701 -0.125084 -0.20764)             (7.36605 -0.12626 -0.216243)             (7.41941 -0.12843 -0.240204)             (7.44537 -0.129476 -0.257694)             (7.49424 -0.131406 -0.267455)             (7.55577 -0.129997 -0.254933)             (7.55577 -0.129997 -0.254933)             (7.5809 -0.130717 -0.257075)             (7.62014 -0.131853 -0.238978)             (7.65462 -0.132781 -0.229265)             (7.68668 -0.133532 -0.206479)             (7.7385 -0.134495 -0.154416)             (7.75795 -0.134773 -0.123213)             (7.77272 -0.134952 -0.0896647)             (7.78266 -0.135059 -0.0544547)             (-1e+300 -1e+300 -1e+300)             (-1e+300 -1e+300 -1e+300)             (-1e+300 -1e+300 -1e+300)             (-1e+300 -1e+300 -1e+300)             (-1e+300 -1e+300 -1e+300)             (-1e+300 -1e+300 -1e+300)             (-1e+300 -1e+300 -1e+300)             (-1e+300 -1e+300 -1e+300)             (-1e+300 -1e+300 -1e+300)             (-1e+300 -1e+300 -1e+300)             (-1e+300 -1e+300 -1e+300)             (-1e+300 -1e+300 -1e+300)             (-1e+300 -1e+300 -1e+300)             (-1e+300 -1e+300 -1e+300)             (-1e+300 -1e+300 -1e+300)             (-1e+300 -1e+300 -1e+300)             (-1e+300 -1e+300 -1e+300)
        0.024             (6.64359 -0.114974 0.00652231)             (6.64733 -0.115041 0.0203705)             (6.66457 -0.116647 0.0262788)             (6.66511 -0.115156 0.0355917)             (6.67555 -0.115274 0.0428857)             (6.70723 -0.116986 0.0529209)             (6.72412 -0.117149 0.0559061)             (6.7331 -0.117327 0.0523615)             (6.7527 -0.117514 0.055618)             (6.78477 -0.117824 0.0571903)             (6.8192 -0.11821 0.0540327)             (6.85526 -0.11863 0.0477185)             (6.89218 -0.119084 0.0383693)             (6.94164 -0.119736 0.0217914)             (6.97825 -0.120256 0.0068183)             (7.0022 -0.120617 -0.00412285)             (7.02573 -0.120988 -0.0159608)             (7.07124 -0.121772 -0.0436636)             (7.11832 -0.122305 -0.0731032)             (7.15862 -0.123322 -0.0966856)             (7.19645 -0.124367 -0.12357)             (7.24952 -0.125982 -0.158471)             (7.28246 -0.127066 -0.187841)             (7.33429 -0.129956 -0.219902)             (7.36451 -0.131231 -0.229553)             (7.42019 -0.133593 -0.254028)             (7.44731 -0.134736 -0.271473)             (7.49841 -0.136853 -0.28203)             (7.56265 -0.135525 -0.268545)             (7.56265 -0.135525 -0.268545)             (7.58896 -0.136235 -0.269266)             (7.62994 -0.137503 -0.250988)             (7.66608 -0.138532 -0.240262)             (7.69962 -0.139351 -0.216376)             (7.75383 -0.140381 -0.161687)             (7.77414 -0.140674 -0.128957)             (7.78955 -0.140858 -0.0938114)             (7.7999 -0.140968 -0.0569556)             (-1e+300 -1e+300 -1e+300)             (-1e+300 -1e+300 -1e+300)             (-1e+300 -1e+300 -1e+300)             (-1e+300 -1e+300 -1e+300)             (-1e+300 -1e+300 -1e+300)             (-1e+300 -1e+300 -1e+300)             (-1e+300 -1e+300 -1e+300)             (-1e+300 -1e+300 -1e+300)             (-1e+300 -1e+300 -1e+300)             (-1e+300 -1e+300 -1e+300)             (-1e+300 -1e+300 -1e+300)             (-1e+300 -1e+300 -1e+300)             (-1e+300 -1e+300 -1e+300)             (-1e+300 -1e+300 -1e+300)             (-1e+300 -1e+300 -1e+300)             (-1e+300 -1e+300 -1e+300)             (-1e+300 -1e+300 -1e+300)