# Probe 0 (-0.35 0 0.005)
# Probe 1 (-0.35 0 0.0155)
# Probe 2 (-0.35 0 0.02653)
# Probe 3 (-0.35 0 0.0381)
# Probe 4 (-0.35 0 0.05026)
# Probe 5 (-0.35 0 0.06302)
# Probe 6 (-0.35 0 0.07642)
# Probe 7 (-0.35 0 0.08)
# Probe 8 (-0.35 0 0.09049)
# Probe 9 (-0.35 0 0.10527)
# Probe 10 (-0.35 0 0.12078)
# Probe 11 (-0.35 0 0.13707)
# Probe 12 (-0.35 0 0.15417)
# Probe 13 (-0.35 0 0.17213)
# Probe 14 (-0.35 0 0.19099)
# Probe 15 (-0.35 0 0.2)
# Probe 16 (-0.35 0 0.21079)
# Probe 17 (-0.35 0 0.23157)
# Probe 18 (-0.35 0 0.2534)
# Probe 19 (-0.35 0 0.27632)
# Probe 20 (-0.35 0 0.30039)
# Probe 21 (-0.35 0 0.32566)
# Probe 22 (-0.35 0 0.35219)
# Probe 23 (-0.35 0 0.38005)
# Probe 24 (-0.35 0 0.4093)
# Probe 25 (-0.35 0 0.44002)
# Probe 26 (-0.35 0 0.47227)
# Probe 27 (-0.35 0 0.50613)
# Probe 28 (-0.35 0 0.54169)
# Probe 29 (-0.35 0 0.57903)
# Probe 30 (-0.35 0 0.61823)
# Probe 31 (-0.35 0 0.65939)
# Probe 32 (-0.35 0 0.70261)
# Probe 33 (-0.35 0 0.74799)
# Probe 34 (-0.35 0 0.79564)
# Probe 35 (-0.35 0 0.84567)
# Probe 36 (-0.35 0 0.8982)
# Probe 37 (-0.35 0 0.95336)
# Probe 38 (-0.35 0 1.01128)
# Probe 39 (-0.35 0 1.0721)
# Probe 40 (-0.35 0 1.13595)
# Probe 41 (-0.35 0 1.203)
# Probe 42 (-0.35 0 1.2734)
# Probe 43 (-0.35 0 1.34732)
# Probe 44 (-0.35 0 1.42493)
# Probe 45 (-0.35 0 1.50643)
# Probe 46 (-0.35 0 1.592)
# Probe 47 (-0.35 0 1.68185)
# Probe 48 (-0.35 0 1.77619)
# Probe 49 (-0.35 0 1.87525)
# Probe 50 (-0.35 0 1.97927)
# Probe 51 (-0.35 0 2.08848)
# Probe 52 (-0.35 0 2.20315)
# Probe 53 (-0.35 0 2.32356)
# Probe 54 (-0.35 0 2.44999)
#       Probe             0             1             2             3             4             5             6             7             8             9            10            11            12            13            14            15            16            17            18            19            20            21            22            23            24            25            26            27            28            29            30            31            32            33            34            35            36            37            38            39            40            41            42            43            44            45            46            47            48            49            50            51            52            53            54
#        Time
        3.522       5.11851       4.86702       5.00126       4.98383       4.98979       4.86613       4.72015       4.59317       4.47525       4.02799        3.4802       3.26186       3.29909       3.29333       3.22658       3.19014        3.1655       2.56043       2.29353       2.26812       2.21334       2.16961       2.11723       2.21514        2.0545         2.077       1.99443       2.11774       2.19047       2.19047       1.91189       2.12447       2.31487       2.28837       2.58745       2.56426       2.61158       2.54616       -1e+300       -1e+300       -1e+300       -1e+300       -1e+300       -1e+300       -1e+300       -1e+300       -1e+300       -1e+300       -1e+300       -1e+300       -1e+300       -1e+300       -1e+300       -1e+300       -1e+300
        3.524      -1.89885      -1.90663      -1.93279      -2.00021      -1.87052      -2.00534      -2.06399      -2.15154      -2.22974      -2.82405      -3.42314      -3.76751      -3.75216      -3.91034      -3.97364      -4.02375      -4.07268      -4.72986      -5.02299      -4.98851      -4.99495        -4.917      -4.92254       -4.9084      -5.04357      -5.11031      -5.17795       -5.0593      -4.97817      -4.97817      -5.26435      -5.01526      -4.88128      -4.89924      -4.63195      -4.66955      -4.65785      -4.71598       -1e+300       -1e+300       -1e+300       -1e+300       -1e+300       -1e+300       -1e+300       -1e+300       -1e+300       -1e+300       -1e+300       -1e+300       -1e+300       -1e+300       -1e+300       -1e+300       -1e+300
        3.526      -1.86687      -1.73773      -2.07103      -2.23074      -2.14388      -1.76029      -1.69515      -1.75246      -1.78315       -2.3119       -3.0705      -3.52994      -3.55007      -3.91958      -4.07818      -4.10653      -4.29514       -4.9471      -5.25754        -5.162      -5.06433      -4.88788      -4.81867      -4.93492      -4.99348      -5.07188      -5.08569      -4.93266      -4.81376      -4.81376      -5.04169      -4.85417       -4.7178      -4.71876      -4.45327      -4.46882      -4.49325      -4.51898       -1e+300       -1e+300       -1e+300       -1e+300       -1e+300       -1e+300       -1e+300       -1e+300       -1e+300       -1e+300       -1e+300       -1e+300       -1e+300       -1e+300       -1e+300       -1e+300       -1e+300
        3.528       4.37358       4.41812       4.03252       3.93392       3.96866       4.93129        4.8545       4.75191       4.67557       4.08756       3.36972       3.05442       2.77885       2.45621       2.17966       2.13055       1.87189       1.27359      0.865354       1.04109       1.23744       1.45472       1.60876       1.34497       1.29997       1.27221       1.31676       1.51614       1.62486       1.62486       1.38424       1.59527        1.6685       1.70304       1.95279       1.98314        1.9226       1.93041       -1e+300       -1e+300       -1e+300       -1e+300       -1e+300       -1e+300       -1e+300       -1e+300       -1e+300       -1e+300       -1e+300       -1e+300       -1e+300       -1e+300       -1e+300       -1e+300       -1e+300
         3.53     -0.222674     -0.312134     -0.521753     -0.428223     -0.130251      0.555365      0.178762      0.105516     -0.127055     -0.841012      -1.19155      -1.46243      -1.87254      -2.09706      -2.41242      -2.43123      -2.44754      -3.21139      -3.69873      -3.46578      -3.31063      -3.06346      -2.90771      -3.33564      -3.42971      -3.45265      -3.38767      -3.16067      -3.03889      -3.03889      -3.35232      -3.18462      -3.16543      -3.15444      -2.94806      -2.94139      -3.06321       -3.0542       -1e+300       -1e+300       -1e+300       -1e+300       -1e+300       -1e+300       -1e+300       -1e+300       -1e+300       -1e+300       -1e+300       -1e+300       -1e+300       -1e+300       -1e+300       -1e+300       -1e+300
        3.532       -6.1889      -6.21027       -6.2683      -6.08765      -5.57242      -5.86215      -6.17254      -6.37685       -6.5708      -6.81526      -7.08344       -7.4043      -7.74036       -7.9387      -8.54166       -8.5703      -8.18556      -8.99845       -9.4682      -9.15609      -9.10019      -8.87225      -8.74551      -9.22615      -9.35382      -9.38973      -9.32183      -9.05601      -8.94033      -8.94033      -9.20066      -9.08762       -9.0825      -9.05862      -8.90099      -8.84895      -8.99984      -8.97359       -1e+300       -1e+300       -1e+300       -1e+300       -1e+300       -1e+300       -1e+300       -1e+300       -1e+300       -1e+300       -1e+300       -1e+300       -1e+300       -1e+300       -1e+300       -1e+300       -1e+300
        3.534     -0.948947     -0.866709     -0.996744     -0.846783     -0.429135     -0.944313      -1.44915       -1.5965      -1.47821      -1.73335      -1.94489      -2.23113      -2.43498       -2.6996      -3.29867      -3.38337      -3.07972      -3.75444      -4.01653      -3.71737      -3.65275      -3.51317      -3.44193      -3.84678      -3.96162      -4.00101      -3.96138      -3.65188      -3.53512      -3.53512       -3.7243      -3.60935       -3.5898      -3.54493      -3.42451       -3.3255       -3.4693      -3.43201       -1e+300       -1e+300       -1e+300       -1e+300       -1e+300       -1e+300       -1e+300       -1e+300       -1e+300       -1e+300       -1e+300       -1e+300       -1e+300       -1e+300       -1e+300       -1e+300       -1e+300
        3.536      -1.94671      -1.91616      -2.17998      -2.03081      -1.81939      -2.28448      -2.67431      -2.71574       -2.5946      -2.78069      -3.03844      -3.38762      -3.55813      -3.78615      -4.11769      -4.16722      -4.20785       -4.8957      -4.92244      -4.68936      -4.59984      -4.61261      -4.58812      -4.94002      -5.03526      -5.17719       -5.1764      -4.87332      -4.78887      -4.78887      -4.91745      -4.89778      -4.88745      -4.85746      -4.78885      -4.67503      -4.82634      -4.80996       -1e+300       -1e+300       -1e+300       -1e+300       -1e+300       -1e+300       -1e+300       -1e+300       -1e+300       -1e+300       -1e+300       -1e+300       -1e+300       -1e+300       -1e+300       -1e+300       -1e+300
        3.538      -3.56204      -3.65312      -3.89136      -3.82318      -3.53602      -3.85063      -4.02303      -4.09186      -4.23588      -4.35727      -4.67384       -5.0792       -5.2921      -5.52705      -5.66151      -5.69682      -5.76393      -6.37609      -6.34615      -6.14707      -6.03971      -6.18762      -6.25715      -6.54338      -6.61557      -6.82326      -6.85605      -6.63414      -6.57215      -6.57215      -6.56041      -6.58337      -6.59454      -6.57109      -6.57805      -6.46632      -6.56363      -6.56711       -1e+300       -1e+300       -1e+300       -1e+300       -1e+300       -1e+300       -1e+300       -1e+300       -1e+300       -1e+300       -1e+300       -1e+300       -1e+300       -1e+300       -1e+300       -1e+300       -1e+300
         3.54      0.460102       0.33913       0.27313      0.428463      0.710603      0.500742      0.339568       0.10902      -0.27157     -0.363322     -0.673286      -1.02939      -1.31137      -1.45073      -1.56471      -1.63213      -1.66971       -2.0562      -2.07535      -1.80843       -1.7202      -2.00554      -2.10709      -2.31253      -2.36631      -2.58199      -2.61887      -2.40432      -2.39497      -2.39497      -2.29093      -2.30191      -2.28057      -2.25065      -2.26056      -2.13773       -2.2103      -2.21186       -1e+300       -1e+300       -1e+300       -1e+300       -1e+300       -1e+300       -1e+300       -1e+300       -1e+300       -1e+300       -1e+300       -1e+300       -1e+300       -1e+300       -1e+300       -1e+300       -1e+300
        3.542       4.97446       4.98234        5.0216       5.24869       5.24568        4.8582       4.56678       4.44491       4.16685       4.11502       3.76387       3.48529       3.24226       3.07899       3.04214       2.89787       2.80426       2.67458       2.78119       3.01093       2.97745       2.58052       2.49003       2.35758       2.30012       2.10262       2.05101       2.20097       2.16544       2.16544       2.36013        2.3692       2.41108       2.45403       2.41581       2.55963       2.53866         2.526       -1e+300       -1e+300       -1e+300       -1e+300       -1e+300       -1e+300       -1e+300       -1e+300       -1e+300       -1e+300       -1e+300       -1e+300       -1e+300       -1e+300       -1e+300       -1e+300       -1e+300
        3.544      -1.40009      -1.26542      -1.24388      -1.00568        -1.308      -2.01808      -2.32155      -2.52981      -2.47625      -2.51224       -2.8264      -3.02029      -3.09387      -3.37265      -3.36233      -3.35426      -3.38147      -3.41434      -3.49255      -3.26179      -3.44836      -3.84126       -3.9286      -4.05159       -4.1378       -4.3211      -4.40592      -4.34335      -4.42386      -4.42386      -4.14307        -4.164      -4.12181      -4.07734      -4.21713      -4.07428      -4.04895      -4.08757       -1e+300       -1e+300       -1e+300       -1e+300       -1e+300       -1e+300       -1e+300       -1e+300       -1e+300       -1e+300       -1e+300       -1e+300       -1e+300       -1e+300       -1e+300       -1e+300       -1e+300
        3.546      -4.30011      -4.11538      -4.16542      -4.11116      -4.53251      -4.90574      -5.69063      -5.54887      -5.33487      -5.48804      -5.89811      -6.12925       -6.0765       -6.2184      -6.21671      -6.11521      -6.00127      -5.93155      -6.56112      -6.18535      -6.42288      -6.66819      -6.75767      -6.88288      -6.97959      -7.11834      -7.22428      -7.24438      -7.30154      -7.30154      -7.03946      -7.05328      -7.01688      -6.97237      -7.11427      -7.02869      -6.96797      -7.00282       -1e+300       -1e+300       -1e+300       -1e+300       -1e+300       -1e+300       -1e+300       -1e+300       -1e+300       -1e+300       -1e+300       -1e+300       -1e+300       -1e+300       -1e+300       -1e+300       -1e+300
        3.548       5.50503        5.6472       5.44495       5.51878        5.2223       4.76538       4.33815       4.63484       4.63772       4.25023       3.80178       3.65125       3.63355       3.60282         3.676       3.84999       4.08204       4.02723        3.5459       3.55971       3.40366       3.29675       3.23855        3.1258       3.05221       2.98376       2.88218       2.82035       2.68861       2.68861       3.05611       3.06686        3.1383       3.20949       3.06372       3.11298       3.21807       3.18726       -1e+300       -1e+300       -1e+300       -1e+300       -1e+300       -1e+300       -1e+300       -1e+300       -1e+300       -1e+300       -1e+300       -1e+300       -1e+300       -1e+300       -1e+300       -1e+300       -1e+300
         3.55       1.17635       1.17861       0.64473       1.13516       0.97095      0.353732      0.303478      0.473214      0.209655     -0.306272     -0.555211     -0.597138     -0.673306     -0.670351     -0.647783     -0.476724     -0.275476      -0.58007     -0.839834     -0.966616      -1.01177      -1.10917      -1.12781      -1.28576      -1.34451       -1.3757      -1.48028      -1.61143      -1.80365      -1.80365      -1.44608      -1.21302      -1.32882      -1.27444      -1.40391      -1.39021      -1.29352      -1.32765       -1e+300       -1e+300       -1e+300       -1e+300       -1e+300       -1e+300       -1e+300       -1e+300       -1e+300       -1e+300       -1e+300       -1e+300       -1e+300       -1e+300       -1e+300       -1e+300       -1e+300
        3.552      -3.20149      -3.34498      -3.67951      -3.44773      -3.62753      -4.16691      -4.23868      -4.12544      -4.39766      -4.95769      -5.04458      -5.14249      -5.18072       -5.0995      -5.05542      -4.98834      -5.03442      -5.33975      -5.45555      -5.50553      -5.52786      -5.64015      -5.61036      -5.76416      -5.80401      -5.80395      -5.88603      -6.02729      -6.22995      -6.22995       -5.8626      -5.85083      -5.77534      -5.70673      -5.87734      -5.88137       -5.7629      -5.82178       -1e+300       -1e+300       -1e+300       -1e+300       -1e+300       -1e+300       -1e+300       -1e+300       -1e+300       -1e+300       -1e+300       -1e+300       -1e+300       -1e+300       -1e+300       -1e+300       -1e+300
        3.554      0.813783      0.735289      0.819159      0.445928      0.140756     -0.216827      -0.47466     -0.255712     -0.611392      -1.10761      -1.20786      -1.33829      -1.39923      -1.24301      -1.16558      -1.22582      -1.23579      -1.52774      -1.57201      -1.61013      -1.62845      -1.72702      -1.67858      -1.76593      -1.78914       -1.7773      -1.82081      -1.92561      -2.20804      -2.20804       -1.8019      -1.75671      -1.69151      -1.60347      -1.75877      -1.76322      -1.62551       -1.6855       -1e+300       -1e+300       -1e+300       -1e+300       -1e+300       -1e+300       -1e+300       -1e+300       -1e+300       -1e+300       -1e+300       -1e+300       -1e+300       -1e+300       -1e+300       -1e+300       -1e+300
        3.556       3.49123       3.54976       3.46244       2.96449       2.71165       2.55718       2.30872       2.23879       2.08288        1.4978       1.41076       1.41203       1.03163        1.4064       1.37095       1.24548        1.2271      0.993463      0.942879       0.90312      0.917549      0.868235       0.89761      0.867618      0.853052      0.864217      0.838955      0.795684      0.497795      0.497795      0.863253      0.918504      0.972662       1.05776      0.974828       0.94473       1.07617       1.04098       -1e+300       -1e+300       -1e+300       -1e+300       -1e+300       -1e+300       -1e+300       -1e+300       -1e+300       -1e+300       -1e+300       -1e+300       -1e+300       -1e+300       -1e+300       -1e+300       -1e+300
        3.558       3.26019       3.30998       2.88975       2.77553       2.71835       2.49947       2.34591       2.24019       2.04812       1.47179       1.38894       1.52058       1.10809       1.31608       1.15202      0.994905      0.921616       0.66034      0.644377      0.664499      0.698883      0.691787      0.690321      0.670054      0.661183      0.648833      0.620029      0.611367      0.289829      0.289829       0.60876      0.672545      0.722954      0.806774      0.719832      0.697759      0.840974      0.799093       -1e+300       -1e+300       -1e+300       -1e+300       -1e+300       -1e+300       -1e+300       -1e+300       -1e+300       -1e+300       -1e+300       -1e+300       -1e+300       -1e+300       -1e+300       -1e+300       -1e+300
         3.56       4.27775       4.08696       3.60926       4.09866       4.13035       3.93858       3.87389       3.91777       3.53141       2.97984       2.77303        2.9734       2.76577       2.68803       2.59329       2.48853        2.3199       2.00332       2.14499       2.10803       2.11621       2.09483       2.07061       2.05727       2.07559       2.06662       2.03234       2.04868       1.78722       1.78722       2.01885       2.08758       2.14099       2.22231       2.18006       2.16664       2.30195       2.27432       -1e+300       -1e+300       -1e+300       -1e+300       -1e+300       -1e+300       -1e+300       -1e+300       -1e+300       -1e+300       -1e+300       -1e+300       -1e+300       -1e+300       -1e+300       -1e+300       -1e+300
        3.562       4.90867       4.48984       4.36787       5.28319       5.39657       5.37243       5.50376       5.32937       5.01215       4.46149       4.19213       4.38518       4.17693        4.0725        3.9491       3.90168        3.7841       3.59415       3.67302       3.58798       3.61415        3.5302         3.489       3.46882       3.52776       3.50947       3.48295       3.50719       3.30074       3.30074        3.3822       3.50125        3.5717       3.65704       3.63079       3.63255        3.7825       3.76842       -1e+300       -1e+300       -1e+300       -1e+300       -1e+300       -1e+300       -1e+300       -1e+300       -1e+300       -1e+300       -1e+300       -1e+300       -1e+300       -1e+300       -1e+300       -1e+300       -1e+300
        3.564       2.58223       2.04301       2.01883       3.52731       3.85825       3.93541        3.9391       3.81275       3.60887       3.14761       2.87019       2.81399       2.72039       2.70481       2.57547       2.49071       2.38805       2.32319       2.20549       2.15271       2.16517       2.01121       1.94364       1.87124       1.95199       1.89334       1.85202       1.82034       1.62694       1.62694        1.6936       1.73399       1.76812       1.82617       1.77329       1.77048       1.91368       1.89892       -1e+300       -1e+300       -1e+300       -1e+300       -1e+300       -1e+300       -1e+300       -1e+300       -1e+300       -1e+300       -1e+300       -1e+300       -1e+300       -1e+300       -1e+300       -1e+300       -1e+300
        3.566    -0.0050768       -0.7809     -0.170439       1.52712       1.72526       1.68409       1.73059        1.6747       1.52324       1.24749      0.782331      0.572288      0.493432       0.50016      0.559358      0.471207      0.373881      0.306298      0.102432     0.0601458     0.0304426     -0.150689     -0.213347     -0.338448     -0.230035     -0.312048     -0.348793     -0.437912      -0.58652      -0.58652     -0.506983     -0.478203     -0.443231     -0.379903      -0.41697     -0.405907     -0.239457     -0.236372       -1e+300       -1e+300       -1e+300       -1e+300       -1e+300       -1e+300       -1e+300       -1e+300       -1e+300       -1e+300       -1e+300       -1e+300       -1e+300       -1e+300       -1e+300       -1e+300       -1e+300
        3.568       2.53705       1.77891       2.84038       3.77029       3.50514       3.58221       3.55872       3.50519       3.36138       3.18728       2.94003       2.72021       2.59318       2.52963       2.46702       2.34892       2.33851       2.16299       1.74939       1.92849       1.85961       1.70666       1.67375       1.51345       1.63986        1.5802       1.55121       1.43216       1.30472       1.30472       1.38935       1.42461       1.47383        1.5575       1.55007       1.57571       1.76749       1.77082       -1e+300       -1e+300       -1e+300       -1e+300       -1e+300       -1e+300       -1e+300       -1e+300       -1e+300       -1e+300       -1e+300       -1e+300       -1e+300       -1e+300       -1e+300       -1e+300       -1e+300
         3.57       5.54088        5.3062       5.67639       5.55438        5.4047       5.41091       5.39003         5.359       5.25732       5.17323       4.98018       4.86687       4.73434       4.49668       4.24824       4.27253       4.30881       3.98481       3.58804         3.737       3.66064       3.53498       3.52325       3.36049       3.44767       3.40086       3.35927       3.17837       3.02677       3.02677        3.0903       3.09718       3.11923       3.17877       3.14581       3.16475       3.34518       3.34471       -1e+300       -1e+300       -1e+300       -1e+300       -1e+300       -1e+300       -1e+300       -1e+300       -1e+300       -1e+300       -1e+300       -1e+300       -1e+300       -1e+300       -1e+300       -1e+300       -1e+300
        3.572       3.17775       3.00192       2.36646       1.96655       1.77779       1.66591       1.99261       1.97417       1.87232       1.82271       1.60851       1.44057       1.22647      0.960006      0.591997      0.526825      0.669854      0.391235      0.210706      0.184462      0.117744     0.0527023     0.0659288     -0.107964    -0.0626151    -0.0980597     -0.147553     -0.350381     -0.535121     -0.535121     -0.432666     -0.452817     -0.443438     -0.376641     -0.410885      -0.40161     -0.225055     -0.209883       -1e+300       -1e+300       -1e+300       -1e+300       -1e+300       -1e+300       -1e+300       -1e+300       -1e+300       -1e+300       -1e+300       -1e+300       -1e+300       -1e+300       -1e+300       -1e+300       -1e+300
        3.574        3.3949       2.48916       1.80375       1.30358       1.07218       1.15087       1.42919       1.39839       1.18976       1.10162       0.99862      0.786691      0.554916      0.300112     0.0346029     -0.117973      -0.04169     -0.266209      -0.23018     -0.453918     -0.564557      -0.53655     -0.531698     -0.614582     -0.633364     -0.632194     -0.674977     -0.873334      -1.06186      -1.06186     -0.928315     -0.943322     -0.925717     -0.858998     -0.850831     -0.815319      -0.66535     -0.636886       -1e+300       -1e+300       -1e+300       -1e+300       -1e+300       -1e+300       -1e+300       -1e+300       -1e+300       -1e+300       -1e+300       -1e+300       -1e+300       -1e+300       -1e+300       -1e+300       -1e+300
        3.576        4.0543       3.47922       3.02767        2.7263       2.61505       2.43992       2.60942       2.47918       2.18784       1.95413       2.06665       1.84087       1.70402       1.44468       1.35414       1.24614       1.14542       1.05628      0.984034      0.748983      0.513328      0.648065      0.637149      0.595677      0.539108      0.516362      0.494371      0.307976     0.0666165     0.0666165      0.209414      0.161995      0.163315      0.226012      0.235345      0.266341      0.422617      0.424092       -1e+300       -1e+300       -1e+300       -1e+300       -1e+300       -1e+300       -1e+300       -1e+300       -1e+300       -1e+300       -1e+300       -1e+300       -1e+300       -1e+300       -1e+300       -1e+300       -1e+300
        3.578       6.19361       5.88557        5.3513       5.48184       5.21847       4.87516       5.14336       5.04473       4.83268       4.60931       4.58329       4.35848       4.18223       4.07081       3.94462       3.82051       3.72966       3.65194       3.45764       3.29605       3.03307       3.20535       3.13762       3.10461       3.03236       2.98555       2.97553       2.82096       2.52191       2.52191       2.66872       2.59689        2.5811       2.63067       2.62379       2.64661       2.77196       2.78328       -1e+300       -1e+300       -1e+300       -1e+300       -1e+300       -1e+300       -1e+300       -1e+300       -1e+300       -1e+300       -1e+300       -1e+300       -1e+300       -1e+300       -1e+300       -1e+300       -1e+300
         3.58       7.30582       6.65886       6.42414       6.65204       6.44806       6.37342       6.34707       6.32155       6.17682       5.98755       5.97057       5.72227       5.51208       5.38693       5.22225       5.03872       4.98471       4.88329       4.69587       4.61339       4.46609       4.55394       4.39268       4.34381       4.28766        4.2105       4.22432       4.13676       3.86593       3.86593       3.97967       3.91529       3.90996       3.96922       3.99635       4.02911          4.15       4.15951       -1e+300       -1e+300       -1e+300       -1e+300       -1e+300       -1e+300       -1e+300       -1e+300       -1e+300       -1e+300       -1e+300       -1e+300       -1e+300       -1e+300       -1e+300       -1e+300       -1e+300
        3.582       4.66844       3.91502       3.64228       3.88967        3.9965       3.90241       3.85773       3.82778       3.62821       3.38586       3.37441       3.32656       3.17201       2.97989       2.76602       2.52515       2.64835       2.53179        2.4389       2.30836       2.18823       2.14904        1.9748       1.88921       1.83132        1.8038       1.81334       1.79466       1.58895       1.58895       1.63744       1.58426       1.58921       1.65638        1.7035       1.73519       1.86218       1.87536       -1e+300       -1e+300       -1e+300       -1e+300       -1e+300       -1e+300       -1e+300       -1e+300       -1e+300       -1e+300       -1e+300       -1e+300       -1e+300       -1e+300       -1e+300       -1e+300       -1e+300
        3.584       1.00359      0.291233     -0.126837     0.0222161      0.245639      0.232209     0.0347645    -0.0426757     -0.300954     -0.462421     -0.327339     -0.299101     -0.422659     -0.656546     -0.782293     -0.815555     -0.705314      -1.05186     -0.997807      -1.29285      -1.54026        -1.627      -1.70217      -1.79575      -1.77788      -1.89898       -1.9082      -1.88387      -2.00622      -2.00622      -2.03632      -2.08072      -2.07125      -2.00514      -1.95414      -1.93813      -1.82562      -1.80624       -1e+300       -1e+300       -1e+300       -1e+300       -1e+300       -1e+300       -1e+300       -1e+300       -1e+300       -1e+300       -1e+300       -1e+300       -1e+300       -1e+300       -1e+300       -1e+300       -1e+300
        3.586      -1.71026      -2.14825      -2.46629      -2.43391      -2.35466      -2.31649      -2.55397      -2.64055      -2.93239      -3.00922      -2.90443      -2.94408      -2.96535      -3.13707      -3.23662      -3.15184      -3.23754      -3.70133      -3.52914      -3.88752       -4.2191      -4.23443      -4.27202       -4.4371      -4.41205      -4.55415      -4.59674      -4.59023      -4.66593      -4.66593       -4.7369      -4.77543      -4.78615      -4.73642      -4.71026       -4.7315      -4.62358      -4.60326       -1e+300       -1e+300       -1e+300       -1e+300       -1e+300       -1e+300       -1e+300       -1e+300       -1e+300       -1e+300       -1e+300       -1e+300       -1e+300       -1e+300       -1e+300       -1e+300       -1e+300
        3.588      0.874798      0.437685      0.302063      0.506957      0.303766      0.143413     -0.206743     -0.279317     -0.428253     -0.365379      -0.33431     -0.511349     -0.454386     -0.650642     -0.753261     -0.759824     -0.862298      -1.10644     -0.993458        -1.341      -1.62054      -1.61273      -1.63533      -1.82868      -1.83263       -2.0171      -2.06465      -2.08137      -2.18784      -2.18784      -2.21617      -2.26993      -2.29683      -2.25293      -2.26873      -2.32392      -2.20672      -2.20673       -1e+300       -1e+300       -1e+300       -1e+300       -1e+300       -1e+300       -1e+300       -1e+300       -1e+300       -1e+300       -1e+300       -1e+300       -1e+300       -1e+300       -1e+300       -1e+300       -1e+300
         3.59       1.93287       1.52034        1.8675       2.21274       1.89346       1.10834      0.652936       0.66154      0.605543      0.586888      0.620561       0.37198      0.469818      0.305472     0.0981606     0.0990665       0.24787    -0.0468494     -0.229846     -0.369215     -0.616121     -0.778969     -0.692253     -0.881872      -0.90853      -1.09907      -1.14026      -1.16259      -1.29489      -1.29489      -1.27752       -1.3146      -1.35003      -1.29778      -1.31186      -1.38799      -1.29317      -1.28494       -1e+300       -1e+300       -1e+300       -1e+300       -1e+300       -1e+300       -1e+300       -1e+300       -1e+300       -1e+300       -1e+300       -1e+300       -1e+300       -1e+300       -1e+300       -1e+300       -1e+300