# Probe 0 (-0.35 0 0.005)
# Probe 1 (-0.35 0 0.0155)
# Probe 2 (-0.35 0 0.02653)
# Probe 3 (-0.35 0 0.0381)
# Probe 4 (-0.35 0 0.05026)
# Probe 5 (-0.35 0 0.06302)
# Probe 6 (-0.35 0 0.07642)
# Probe 7 (-0.35 0 0.08)
# Probe 8 (-0.35 0 0.09049)
# Probe 9 (-0.35 0 0.10527)
# Probe 10 (-0.35 0 0.12078)
# Probe 11 (-0.35 0 0.13707)
# Probe 12 (-0.35 0 0.15417)
# Probe 13 (-0.35 0 0.17213)
# Probe 14 (-0.35 0 0.19099)
# Probe 15 (-0.35 0 0.2)
# Probe 16 (-0.35 0 0.21079)
# Probe 17 (-0.35 0 0.23157)
# Probe 18 (-0.35 0 0.2534)
# Probe 19 (-0.35 0 0.27632)
# Probe 20 (-0.35 0 0.30039)
# Probe 21 (-0.35 0 0.32566)
# Probe 22 (-0.35 0 0.35219)
# Probe 23 (-0.35 0 0.38005)
# Probe 24 (-0.35 0 0.4093)
# Probe 25 (-0.35 0 0.44002)
# Probe 26 (-0.35 0 0.47227)
# Probe 27 (-0.35 0 0.50613)
# Probe 28 (-0.35 0 0.54169)
# Probe 29 (-0.35 0 0.57903)
# Probe 30 (-0.35 0 0.61823)
# Probe 31 (-0.35 0 0.65939)
# Probe 32 (-0.35 0 0.70261)
# Probe 33 (-0.35 0 0.74799)
# Probe 34 (-0.35 0 0.79564)
# Probe 35 (-0.35 0 0.84567)
# Probe 36 (-0.35 0 0.8982)
# Probe 37 (-0.35 0 0.95336)
# Probe 38 (-0.35 0 1.01128)
# Probe 39 (-0.35 0 1.0721)
# Probe 40 (-0.35 0 1.13595)
# Probe 41 (-0.35 0 1.203)
# Probe 42 (-0.35 0 1.2734)
# Probe 43 (-0.35 0 1.34732)
# Probe 44 (-0.35 0 1.42493)
# Probe 45 (-0.35 0 1.50643)
# Probe 46 (-0.35 0 1.592)
# Probe 47 (-0.35 0 1.68185)
# Probe 48 (-0.35 0 1.77619)
# Probe 49 (-0.35 0 1.87525)
# Probe 50 (-0.35 0 1.97927)
# Probe 51 (-0.35 0 2.08848)
# Probe 52 (-0.35 0 2.20315)
# Probe 53 (-0.35 0 2.32356)
# Probe 54 (-0.35 0 2.44999)
#       Probe             0             1             2             3             4             5             6             7             8             9            10            11            12            13            14            15            16            17            18            19            20            21            22            23            24            25            26            27            28            29            30            31            32            33            34            35            36            37            38            39            40            41            42            43            44            45            46            47            48            49            50            51            52            53            54
#        Time
        3.522             (3.68015 -1.26714 0.128281)             (3.56669 -0.453273 0.118512)             (3.01725 0.255329 0.257188)             (3.5601 0.46915 0.657598)             (3.79268 0.258944 0.791171)             (4.51866 -0.279332 0.593407)             (4.47531 -0.884337 0.95354)             (4.2298 -1.02797 0.935076)             (3.92319 -0.692659 0.570877)             (5.90964 -1.38234 1.26605)             (6.95305 -1.03674 0.945526)             (6.53646 -0.590464 0.860791)             (6.20316 0.134323 0.8477)             (6.80635 0.68384 0.28199)             (7.50723 0.62403 -0.0313164)             (7.36968 0.524383 -0.258221)             (7.14038 0.225337 -0.185082)             (7.4534 -0.197279 -0.423637)             (8.06941 1.01005 -0.664864)             (8.46307 1.28612 -0.783827)             (8.56276 0.816587 -0.770291)             (8.86944 0.904649 -0.96639)             (8.57776 0.785656 -1.02178)             (7.8469 -0.170453 -0.770255)             (7.80896 -0.262752 -0.651675)             (8.00027 -0.0540213 -0.275603)             (7.56687 -0.580388 -0.140437)             (7.22237 -0.834591 -0.306759)             (7.68894 -0.847159 0.213329)             (7.68894 -0.847159 0.213329)             (7.95419 -0.505536 0.0297869)             (8.01496 -0.809201 -0.32206)             (8.16094 -0.636726 -0.32865)             (8.25652 -0.331647 -0.00158409)             (8.77016 0.17842 -0.0809866)             (8.78794 -0.253308 0.200529)             (8.5567 -0.198806 0.120452)             (8.72354 0.0597034 0.0767693)             (-1e+300 -1e+300 -1e+300)             (-1e+300 -1e+300 -1e+300)             (-1e+300 -1e+300 -1e+300)             (-1e+300 -1e+300 -1e+300)             (-1e+300 -1e+300 -1e+300)             (-1e+300 -1e+300 -1e+300)             (-1e+300 -1e+300 -1e+300)             (-1e+300 -1e+300 -1e+300)             (-1e+300 -1e+300 -1e+300)             (-1e+300 -1e+300 -1e+300)             (-1e+300 -1e+300 -1e+300)             (-1e+300 -1e+300 -1e+300)             (-1e+300 -1e+300 -1e+300)             (-1e+300 -1e+300 -1e+300)             (-1e+300 -1e+300 -1e+300)             (-1e+300 -1e+300 -1e+300)             (-1e+300 -1e+300 -1e+300)
        3.524             (3.85495 -1.01585 0.0997126)             (3.46447 -0.351346 0.0262456)             (2.92141 0.0961703 0.353209)             (3.42179 0.35767 0.545781)             (3.97318 0.322135 0.826711)             (4.54322 -0.508125 0.716752)             (4.29527 -1.34188 0.498883)             (4.19594 -1.35794 0.355587)             (4.067 -0.942663 0.274978)             (6.11991 -1.45492 1.41876)             (7.28082 -0.810463 0.715334)             (6.72961 -0.448052 0.583387)             (6.26977 0.0240813 0.836267)             (6.41583 0.518986 0.611298)             (7.14891 0.458066 0.160322)             (7.0476 0.355682 -0.0753614)             (6.83857 0.046667 -0.165671)             (7.15534 -0.30361 -0.27963)             (7.78866 0.955285 -0.562239)             (8.2866 1.38701 -0.67011)             (8.41498 0.885928 -0.700543)             (8.86356 0.788937 -0.81764)             (8.53853 0.966927 -0.932855)             (7.94688 0.125128 -0.676735)             (7.83477 -0.171172 -0.51727)             (7.88875 -0.158237 -0.281051)             (7.5128 -0.743101 -0.167971)             (7.31708 -0.842354 -0.300603)             (7.55748 -1.03384 0.216488)             (7.55748 -1.03384 0.216488)             (7.86444 -0.726233 0.119856)             (7.91185 -0.925186 -0.244678)             (8.03896 -0.75495 -0.291937)             (8.12446 -0.47508 0.00125602)             (8.68762 0.156484 -0.0798496)             (8.77084 -0.285075 0.199028)             (8.5044 -0.223079 0.159542)             (8.69977 0.146266 0.10332)             (-1e+300 -1e+300 -1e+300)             (-1e+300 -1e+300 -1e+300)             (-1e+300 -1e+300 -1e+300)             (-1e+300 -1e+300 -1e+300)             (-1e+300 -1e+300 -1e+300)             (-1e+300 -1e+300 -1e+300)             (-1e+300 -1e+300 -1e+300)             (-1e+300 -1e+300 -1e+300)             (-1e+300 -1e+300 -1e+300)             (-1e+300 -1e+300 -1e+300)             (-1e+300 -1e+300 -1e+300)             (-1e+300 -1e+300 -1e+300)             (-1e+300 -1e+300 -1e+300)             (-1e+300 -1e+300 -1e+300)             (-1e+300 -1e+300 -1e+300)             (-1e+300 -1e+300 -1e+300)             (-1e+300 -1e+300 -1e+300)
        3.526             (3.74907 -0.904069 0.00822758)             (3.24866 -0.53394 0.101756)             (2.72618 -0.228546 0.552702)             (3.13078 0.0532263 0.545826)             (3.95044 0.260292 0.70546)             (4.44443 -0.928954 0.512184)             (4.48154 -1.34873 0.214732)             (4.63955 -1.23777 0.22817)             (4.87728 -1.21262 0.67286)             (6.43769 -0.948103 0.916225)             (7.41072 -0.69999 0.0680749)             (6.85859 -0.403793 0.164607)             (6.86071 -0.385917 0.383736)             (6.09354 0.272935 0.989931)             (6.68131 0.146529 0.614537)             (6.75208 0.150188 0.196828)             (6.63446 -0.329233 -0.0578298)             (6.89611 -0.506029 -0.118176)             (7.51837 0.828685 -0.408975)             (8.15766 1.27769 -0.454195)             (8.36418 0.989477 -0.529528)             (8.88934 0.670982 -0.645315)             (8.49839 0.988562 -0.796761)             (8.00582 0.481167 -0.626196)             (7.86962 -0.0147336 -0.440394)             (7.75303 -0.25695 -0.313107)             (7.46161 -0.853943 -0.224431)             (7.40682 -0.847516 -0.273181)             (7.44668 -1.2008 0.194473)             (7.44668 -1.2008 0.194473)             (7.77199 -0.939201 0.194626)             (7.81409 -1.02046 -0.177729)             (7.92627 -0.859056 -0.267734)             (8.002 -0.607806 -0.00796589)             (8.59924 0.122089 -0.0870306)             (8.75235 -0.308569 0.177498)             (8.4599 -0.235419 0.1841)             (8.66527 0.236611 0.136472)             (-1e+300 -1e+300 -1e+300)             (-1e+300 -1e+300 -1e+300)             (-1e+300 -1e+300 -1e+300)             (-1e+300 -1e+300 -1e+300)             (-1e+300 -1e+300 -1e+300)             (-1e+300 -1e+300 -1e+300)             (-1e+300 -1e+300 -1e+300)             (-1e+300 -1e+300 -1e+300)             (-1e+300 -1e+300 -1e+300)             (-1e+300 -1e+300 -1e+300)             (-1e+300 -1e+300 -1e+300)             (-1e+300 -1e+300 -1e+300)             (-1e+300 -1e+300 -1e+300)             (-1e+300 -1e+300 -1e+300)             (-1e+300 -1e+300 -1e+300)             (-1e+300 -1e+300 -1e+300)             (-1e+300 -1e+300 -1e+300)
        3.528             (3.58374 -1.08843 -0.0891166)             (3.03757 -0.77955 0.264713)             (2.59267 -0.48373 0.718311)             (2.81565 -0.411494 0.714951)             (3.64743 -0.231183 0.72288)             (4.6178 -1.40701 0.0621223)             (5.36378 -1.13692 0.398145)             (5.45231 -1.01005 0.487009)             (5.76379 -0.970126 0.677573)             (6.77953 -0.260968 -0.256096)             (6.96332 -1.03679 -0.0553678)             (6.89546 -0.496354 0.255928)             (6.93078 -0.558324 0.760304)             (6.22307 -0.115704 1.23804)             (6.27342 -0.231799 1.26304)             (6.44126 -0.0156127 0.744889)             (6.65633 -0.36425 0.369806)             (6.74907 -0.708782 0.0626199)             (7.31744 0.675839 -0.229652)             (8.08497 0.9936 -0.182806)             (8.39331 1.08072 -0.176731)             (8.88756 0.637995 -0.391918)             (8.50971 0.877442 -0.680466)             (8.01937 0.797345 -0.636073)             (7.90584 0.170491 -0.449777)             (7.63448 -0.3109 -0.37082)             (7.44438 -0.867836 -0.302726)             (7.47354 -0.855826 -0.236578)             (7.36619 -1.33596 0.149011)             (7.36619 -1.33596 0.149011)             (7.68748 -1.13483 0.244121)             (7.7311 -1.0921 -0.125496)             (7.83466 -0.942791 -0.256923)             (7.901 -0.72062 -0.0248699)             (8.51337 0.0739927 -0.0996101)             (8.73708 -0.322934 0.139394)             (8.43252 -0.23596 0.19322)             (8.62843 0.323856 0.174008)             (-1e+300 -1e+300 -1e+300)             (-1e+300 -1e+300 -1e+300)             (-1e+300 -1e+300 -1e+300)             (-1e+300 -1e+300 -1e+300)             (-1e+300 -1e+300 -1e+300)             (-1e+300 -1e+300 -1e+300)             (-1e+300 -1e+300 -1e+300)             (-1e+300 -1e+300 -1e+300)             (-1e+300 -1e+300 -1e+300)             (-1e+300 -1e+300 -1e+300)             (-1e+300 -1e+300 -1e+300)             (-1e+300 -1e+300 -1e+300)             (-1e+300 -1e+300 -1e+300)             (-1e+300 -1e+300 -1e+300)             (-1e+300 -1e+300 -1e+300)             (-1e+300 -1e+300 -1e+300)             (-1e+300 -1e+300 -1e+300)
         3.53             (3.52918 -1.35329 -0.101092)             (3.05618 -0.780377 0.34772)             (2.70075 -0.513663 0.764031)             (2.77963 -0.724037 0.866483)             (3.36127 -0.749604 0.768168)             (5.60984 -1.20211 -0.121565)             (5.88799 -1.00736 -0.158376)             (5.88856 -0.888248 -0.3523)             (6.31602 -0.344475 -0.680411)             (6.60195 -0.925996 -0.170607)             (6.58348 -1.05019 0.20986)             (6.59925 -0.917598 0.382351)             (6.3656 -1.01325 0.956808)             (6.36336 -0.569519 1.06049)             (6.46084 -0.464347 1.50049)             (6.05661 -0.279639 1.29604)             (6.54697 -0.188645 0.757604)             (6.70091 -0.754608 0.266043)             (7.1947 0.560778 -0.0296817)             (8.06165 0.732212 0.0187564)             (8.42892 0.966186 0.225336)             (8.75174 0.683174 -0.0730752)             (8.54681 0.763004 -0.592926)             (7.99925 0.965742 -0.692768)             (7.92134 0.335982 -0.547382)             (7.55915 -0.29006 -0.45214)             (7.46485 -0.760927 -0.391581)             (7.49843 -0.857473 -0.206976)             (7.30555 -1.4279 0.0848986)             (7.30555 -1.4279 0.0848986)             (7.60363 -1.30128 0.26154)             (7.65322 -1.13629 -0.0927521)             (7.75583 -0.998336 -0.256317)             (7.8128 -0.804701 -0.0429732)             (8.41986 0.0141058 -0.113273)             (8.71025 -0.325532 0.0906601)             (8.41088 -0.224815 0.188915)             (8.58042 0.402808 0.213403)             (-1e+300 -1e+300 -1e+300)             (-1e+300 -1e+300 -1e+300)             (-1e+300 -1e+300 -1e+300)             (-1e+300 -1e+300 -1e+300)             (-1e+300 -1e+300 -1e+300)             (-1e+300 -1e+300 -1e+300)             (-1e+300 -1e+300 -1e+300)             (-1e+300 -1e+300 -1e+300)             (-1e+300 -1e+300 -1e+300)             (-1e+300 -1e+300 -1e+300)             (-1e+300 -1e+300 -1e+300)             (-1e+300 -1e+300 -1e+300)             (-1e+300 -1e+300 -1e+300)             (-1e+300 -1e+300 -1e+300)             (-1e+300 -1e+300 -1e+300)             (-1e+300 -1e+300 -1e+300)             (-1e+300 -1e+300 -1e+300)
        3.532             (3.5015 -1.41039 -0.0181559)             (3.27011 -0.597837 0.323734)             (2.99971 -0.380702 0.738647)             (3.03402 -0.672153 0.873273)             (3.25228 -0.875389 0.554055)             (6.33163 -0.826686 -0.189777)             (6.04086 -0.289606 -0.974533)             (6.37038 -0.149104 -0.984532)             (6.78006 -0.736835 -0.284532)             (6.68559 -1.05769 0.0142757)             (6.68762 -0.65358 0.302033)             (6.61581 -0.951941 0.0651624)             (6.65074 -0.824659 0.132637)             (6.61083 -0.480763 0.583527)             (6.94601 -0.471423 1.09543)             (5.95942 -0.317623 1.00797)             (6.26909 -0.250185 0.635602)             (6.78007 -0.62487 0.39651)             (7.16273 0.505987 0.179019)             (8.01763 0.755365 0.137717)             (8.48972 0.590705 0.352241)             (8.49406 0.732082 0.150882)             (8.53357 0.719727 -0.51491)             (7.97164 0.941481 -0.765915)             (7.9122 0.437853 -0.701403)             (7.54469 -0.179715 -0.55554)             (7.51682 -0.541526 -0.486632)             (7.48872 -0.835599 -0.205091)             (7.26465 -1.46765 0.00557922)             (7.26465 -1.46765 0.00557922)             (7.5238 -1.42451 0.242831)             (7.58186 -1.15017 -0.0822118)             (7.69197 -1.02017 -0.264047)             (7.73959 -0.85395 -0.0592926)             (8.32258 -0.0541545 -0.126958)             (8.67128 -0.314523 0.0351637)             (8.39561 -0.203134 0.173285)             (8.52573 0.469167 0.250116)             (-1e+300 -1e+300 -1e+300)             (-1e+300 -1e+300 -1e+300)             (-1e+300 -1e+300 -1e+300)             (-1e+300 -1e+300 -1e+300)             (-1e+300 -1e+300 -1e+300)             (-1e+300 -1e+300 -1e+300)             (-1e+300 -1e+300 -1e+300)             (-1e+300 -1e+300 -1e+300)             (-1e+300 -1e+300 -1e+300)             (-1e+300 -1e+300 -1e+300)             (-1e+300 -1e+300 -1e+300)             (-1e+300 -1e+300 -1e+300)             (-1e+300 -1e+300 -1e+300)             (-1e+300 -1e+300 -1e+300)             (-1e+300 -1e+300 -1e+300)             (-1e+300 -1e+300 -1e+300)             (-1e+300 -1e+300 -1e+300)
        3.534             (3.34831 -1.25713 0.0495075)             (3.44431 -0.614397 0.367232)             (3.25031 -0.418494 0.715424)             (3.21963 -0.497825 0.79129)             (3.1746 -0.715872 0.220227)             (6.15805 -0.474772 -0.482565)             (6.41692 -0.0698377 -0.633)             (6.52477 -0.697806 -0.290715)             (6.58172 -1.37989 0.175263)             (7.09142 -0.700727 0.220669)             (6.63852 -0.54553 0.181)             (6.75491 -0.894435 -0.119022)             (6.86403 -0.626637 -0.104785)             (7.33706 -0.208626 0.388754)             (6.8355 -0.239886 0.30184)             (6.08635 -0.142452 -0.00735384)             (6.20043 -0.466044 0.152228)             (6.97172 -0.452098 0.496802)             (7.21605 0.550718 0.353115)             (7.87537 1.02232 0.306767)             (8.59054 0.295505 0.210329)             (8.26023 0.739016 0.14931)             (8.44845 0.682934 -0.47634)             (7.95752 0.771485 -0.826832)             (7.8944 0.464963 -0.858396)             (7.58983 0.0183549 -0.675533)             (7.58619 -0.247125 -0.59179)             (7.4725 -0.776462 -0.244924)             (7.25582 -1.44888 -0.0844353)             (7.25582 -1.44888 -0.0844353)             (7.46596 -1.49046 0.189542)             (7.53104 -1.13048 -0.09324)             (7.65649 -1.00358 -0.27673)             (7.69431 -0.862659 -0.0714811)             (8.2371 -0.12483 -0.138707)             (8.63163 -0.287968 -0.0218181)             (8.39788 -0.171953 0.149229)             (8.48092 0.520374 0.279853)             (-1e+300 -1e+300 -1e+300)             (-1e+300 -1e+300 -1e+300)             (-1e+300 -1e+300 -1e+300)             (-1e+300 -1e+300 -1e+300)             (-1e+300 -1e+300 -1e+300)             (-1e+300 -1e+300 -1e+300)             (-1e+300 -1e+300 -1e+300)             (-1e+300 -1e+300 -1e+300)             (-1e+300 -1e+300 -1e+300)             (-1e+300 -1e+300 -1e+300)             (-1e+300 -1e+300 -1e+300)             (-1e+300 -1e+300 -1e+300)             (-1e+300 -1e+300 -1e+300)             (-1e+300 -1e+300 -1e+300)             (-1e+300 -1e+300 -1e+300)             (-1e+300 -1e+300 -1e+300)             (-1e+300 -1e+300 -1e+300)
        3.536             (3.10932 -1.15993 0.0612221)             (3.53153 -0.964923 0.545995)             (3.44008 -0.685203 0.593217)             (3.14485 -0.473059 0.55314)             (3.08729 -0.602395 -0.0582142)             (6.1894 -0.00721965 -0.557417)             (6.35909 -0.606093 -0.0952717)             (6.38229 -1.14415 0.220062)             (6.83969 -0.874501 0.264398)             (6.90377 -0.622411 0.519759)             (6.58188 -0.611505 0.220869)             (6.68865 -1.10101 0.476673)             (6.61335 -0.967441 -0.0088846)             (6.99303 -0.36684 0.0680761)             (6.55945 -0.0644593 -0.402311)             (6.51413 -0.242491 -0.311149)             (6.45555 -0.670858 0.0663896)             (7.05295 -0.280591 0.579557)             (7.28223 0.699364 0.475404)             (7.7258 1.1677 0.501559)             (8.62111 0.39302 0.136637)             (8.14076 0.732715 -0.0280232)             (8.34867 0.577052 -0.503922)             (7.94574 0.546062 -0.857929)             (7.86612 0.447038 -0.971698)             (7.65184 0.280352 -0.802872)             (7.63083 0.0682486 -0.713706)             (7.45878 -0.678908 -0.322799)             (7.27229 -1.37103 -0.174436)             (7.27229 -1.37103 -0.174436)             (7.42642 -1.48758 0.111598)             (7.4939 -1.07574 -0.119755)             (7.64048 -0.947714 -0.286245)             (7.66793 -0.82893 -0.0753773)             (8.15925 -0.191663 -0.144952)             (8.58346 -0.245396 -0.0735259)             (8.40654 -0.132833 0.121071)             (8.44012 0.555528 0.299708)             (-1e+300 -1e+300 -1e+300)             (-1e+300 -1e+300 -1e+300)             (-1e+300 -1e+300 -1e+300)             (-1e+300 -1e+300 -1e+300)             (-1e+300 -1e+300 -1e+300)             (-1e+300 -1e+300 -1e+300)             (-1e+300 -1e+300 -1e+300)             (-1e+300 -1e+300 -1e+300)             (-1e+300 -1e+300 -1e+300)             (-1e+300 -1e+300 -1e+300)             (-1e+300 -1e+300 -1e+300)             (-1e+300 -1e+300 -1e+300)             (-1e+300 -1e+300 -1e+300)             (-1e+300 -1e+300 -1e+300)             (-1e+300 -1e+300 -1e+300)             (-1e+300 -1e+300 -1e+300)             (-1e+300 -1e+300 -1e+300)
        3.538             (2.95207 -1.21493 0.056427)             (3.80943 -1.21828 0.481411)             (3.69912 -0.759075 0.217629)             (2.96826 -0.549638 0.0799179)             (3.34843 -0.669433 -0.195192)             (6.08715 -0.212572 -0.187653)             (6.50556 -0.628565 0.214465)             (6.76642 -0.868851 0.361289)             (7.02992 -0.766758 0.38587)             (6.66226 -0.592931 0.443549)             (6.75936 -0.61504 0.393102)             (6.79401 -0.933838 0.744593)             (6.43321 -0.964835 0.19968)             (6.75061 -0.0471354 0.246096)             (6.78699 -0.0899208 0.293296)             (6.86498 -0.372849 0.454941)             (6.82371 -0.451316 0.651318)             (6.90819 -0.0346285 0.548683)             (7.31642 0.735394 0.586145)             (7.65909 1.05778 0.594978)             (8.52155 0.720886 0.202717)             (8.08828 0.718527 -0.22869)             (8.30149 0.440141 -0.574029)             (7.93029 0.351452 -0.857832)             (7.82865 0.428725 -1.01647)             (7.68737 0.559231 -0.927436)             (7.62578 0.351779 -0.851613)             (7.45431 -0.551214 -0.420162)             (7.3135 -1.23693 -0.256638)             (7.3135 -1.23693 -0.256638)             (7.4055 -1.40946 0.0204202)             (7.47032 -0.983345 -0.154095)             (7.64112 -0.852339 -0.287136)             (7.65762 -0.752364 -0.0700761)             (8.09163 -0.246952 -0.143347)             (8.52796 -0.187071 -0.115401)             (8.41847 -0.086614 0.0921264)             (8.40479 0.576285 0.30797)             (-1e+300 -1e+300 -1e+300)             (-1e+300 -1e+300 -1e+300)             (-1e+300 -1e+300 -1e+300)             (-1e+300 -1e+300 -1e+300)             (-1e+300 -1e+300 -1e+300)             (-1e+300 -1e+300 -1e+300)             (-1e+300 -1e+300 -1e+300)             (-1e+300 -1e+300 -1e+300)             (-1e+300 -1e+300 -1e+300)             (-1e+300 -1e+300 -1e+300)             (-1e+300 -1e+300 -1e+300)             (-1e+300 -1e+300 -1e+300)             (-1e+300 -1e+300 -1e+300)             (-1e+300 -1e+300 -1e+300)             (-1e+300 -1e+300 -1e+300)             (-1e+300 -1e+300 -1e+300)             (-1e+300 -1e+300 -1e+300)
         3.54             (2.99268 -1.30561 0.0652976)             (4.14051 -1.16961 -0.0139643)             (3.79041 -0.775817 -0.24722)             (2.92079 -0.603948 -0.436972)             (4.44061 -0.663246 0.0387678)             (6.26208 -0.359305 -0.202206)             (6.86664 -1.20172 0.0263077)             (7.05417 -1.26834 0.0281581)             (6.79299 -1.21333 -0.153148)             (6.50666 -1.11744 0.181919)             (6.87675 -0.67962 0.486251)             (6.67219 -0.824975 0.474201)             (6.35897 -0.685797 0.374368)             (6.87694 0.0638448 0.906931)             (7.08399 -0.229337 1.04125)             (6.91942 -0.149744 0.980103)             (6.66711 -0.0629413 0.968776)             (6.75894 0.125492 0.482365)             (7.35534 0.523533 0.690595)             (7.61675 0.878979 0.572974)             (8.3075 0.977411 0.188168)             (8.05632 0.600117 -0.354811)             (8.29859 0.369481 -0.650542)             (7.91848 0.240002 -0.834275)             (7.7923 0.433378 -0.987227)             (7.68089 0.787804 -1.03633)             (7.57753 0.564307 -0.986342)             (7.46262 -0.408558 -0.512561)             (7.38118 -1.05777 -0.325378)             (7.38118 -1.05777 -0.325378)             (7.40763 -1.26037 -0.0753786)             (7.4663 -0.856769 -0.190139)             (7.66168 -0.723612 -0.275083)             (7.66721 -0.639251 -0.0560067)             (8.04423 -0.287107 -0.130926)             (8.47502 -0.118466 -0.143561)             (8.43841 -0.0375784 0.0645903)             (8.38304 0.581139 0.303878)             (-1e+300 -1e+300 -1e+300)             (-1e+300 -1e+300 -1e+300)             (-1e+300 -1e+300 -1e+300)             (-1e+300 -1e+300 -1e+300)             (-1e+300 -1e+300 -1e+300)             (-1e+300 -1e+300 -1e+300)             (-1e+300 -1e+300 -1e+300)             (-1e+300 -1e+300 -1e+300)             (-1e+300 -1e+300 -1e+300)             (-1e+300 -1e+300 -1e+300)             (-1e+300 -1e+300 -1e+300)             (-1e+300 -1e+300 -1e+300)             (-1e+300 -1e+300 -1e+300)             (-1e+300 -1e+300 -1e+300)             (-1e+300 -1e+300 -1e+300)             (-1e+300 -1e+300 -1e+300)             (-1e+300 -1e+300 -1e+300)
        3.542             (3.18246 -1.25903 0.0841642)             (4.10819 -1.19023 -0.384194)             (3.65947 -0.913007 -0.581541)             (3.34247 -0.639694 -0.602533)             (5.63613 -0.351717 0.222458)             (6.39329 -0.934368 -0.495164)             (6.61858 -1.99255 -0.441517)             (6.55863 -1.99158 -0.196618)             (6.30861 -1.70192 -0.0996647)             (6.5502 -1.21157 0.283324)             (7.1128 -0.668003 0.506219)             (6.63932 -0.574101 0.432627)             (6.71176 -0.0131216 0.657089)             (6.93586 0.0727252 0.857796)             (6.79509 -0.0813062 0.937955)             (6.9028 -0.0756389 0.733242)             (6.47313 0.0959153 0.728223)             (6.94467 0.154788 0.492318)             (7.37153 0.457141 0.769517)             (7.54821 0.793377 0.415315)             (8.03298 1.11351 -0.0201553)             (8.06995 0.387592 -0.392155)             (8.28193 0.401495 -0.701784)             (7.91826 0.226775 -0.793244)             (7.76597 0.454666 -0.89725)             (7.64547 0.906421 -1.10778)             (7.51211 0.685366 -1.08528)             (7.47696 -0.263485 -0.578933)             (7.47038 -0.844786 -0.375913)             (7.47038 -0.844786 -0.375913)             (7.42868 -1.0504 -0.164956)             (7.48086 -0.698928 -0.220176)             (7.69838 -0.56733 -0.245919)             (7.69364 -0.498392 -0.0326535)             (8.01809 -0.309108 -0.104425)             (8.42653 -0.0452617 -0.153484)             (8.46241 0.0115261 0.0418794)             (8.37387 0.570992 0.28824)             (-1e+300 -1e+300 -1e+300)             (-1e+300 -1e+300 -1e+300)             (-1e+300 -1e+300 -1e+300)             (-1e+300 -1e+300 -1e+300)             (-1e+300 -1e+300 -1e+300)             (-1e+300 -1e+300 -1e+300)             (-1e+300 -1e+300 -1e+300)             (-1e+300 -1e+300 -1e+300)             (-1e+300 -1e+300 -1e+300)             (-1e+300 -1e+300 -1e+300)             (-1e+300 -1e+300 -1e+300)             (-1e+300 -1e+300 -1e+300)             (-1e+300 -1e+300 -1e+300)             (-1e+300 -1e+300 -1e+300)             (-1e+300 -1e+300 -1e+300)             (-1e+300 -1e+300 -1e+300)             (-1e+300 -1e+300 -1e+300)
        3.544             (3.32952 -1.06085 0.0970555)             (3.89608 -1.21179 -0.401348)             (3.60592 -0.933321 -0.691824)             (4.43379 -0.505904 -0.288808)             (5.3686 -0.245686 -0.478444)             (6.20324 -1.44864 -0.409382)             (6.51424 -2.10702 0.294687)             (6.34548 -1.36064 0.205014)             (6.39757 -1.01936 0.104867)             (6.95049 -0.79937 0.275122)             (7.14235 -0.886698 0.596527)             (6.71379 -0.339429 0.668124)             (6.79398 0.271726 0.673982)             (6.85735 0.103398 0.278059)             (6.59659 0.0522093 0.490348)             (6.48098 0.014847 0.431838)             (6.37604 0.0860985 0.295314)             (7.30156 0.390322 0.681492)             (7.24334 0.703617 0.5821)             (7.44702 0.80989 0.0405839)             (7.88113 1.09997 -0.334449)             (8.10738 0.260258 -0.37804)             (8.2174 0.477703 -0.681541)             (7.92564 0.292509 -0.73987)             (7.74768 0.468293 -0.777018)             (7.60271 0.887459 -1.12051)             (7.44965 0.713711 -1.12249)             (7.47825 -0.119937 -0.610199)             (7.55959 -0.61166 -0.405118)             (7.55959 -0.61166 -0.405118)             (7.45131 -0.794151 -0.239724)             (7.49982 -0.514194 -0.23682)             (7.73615 -0.391476 -0.197347)             (7.7217 -0.338887 0.00123628)             (7.99958 -0.310438 -0.0594734)             (8.372 0.0265849 -0.141387)             (8.47378 0.0585995 0.0273685)             (8.36246 0.547431 0.26412)             (-1e+300 -1e+300 -1e+300)             (-1e+300 -1e+300 -1e+300)             (-1e+300 -1e+300 -1e+300)             (-1e+300 -1e+300 -1e+300)             (-1e+300 -1e+300 -1e+300)             (-1e+300 -1e+300 -1e+300)             (-1e+300 -1e+300 -1e+300)             (-1e+300 -1e+300 -1e+300)             (-1e+300 -1e+300 -1e+300)             (-1e+300 -1e+300 -1e+300)             (-1e+300 -1e+300 -1e+300)             (-1e+300 -1e+300 -1e+300)             (-1e+300 -1e+300 -1e+300)             (-1e+300 -1e+300 -1e+300)             (-1e+300 -1e+300 -1e+300)             (-1e+300 -1e+300 -1e+300)             (-1e+300 -1e+300 -1e+300)