# Probe 0 (-0.091 0 0.008)
# Probe 1 (-0.091 0 0.016)
# Probe 2 (-0.091 0 0.024)
# Probe 3 (-0.091 0 0.032)
# Probe 4 (-0.091 0 0.04)
# Probe 5 (-0.091 0 0.048)
# Probe 6 (-0.091 0 0.056)
# Probe 7 (-0.091 0 0.064)
# Probe 8 (-0.091 0 0.072)
# Probe 9 (-0.091 0 0.08)
# Probe 10 (-0.0894 0 0.080016)
# Probe 11 (-0.0878 0 0.080016)
# Probe 12 (-0.0854 0 0.080016)
# Probe 13 (-0.083 0 0.080016)
# Probe 14 (-0.079 0 0.080016)
# Probe 15 (-0.075 0 0.080016)
# Probe 16 (-0.067 0 0.080016)
# Probe 17 (-0.059 0 0.080016)
# Probe 18 (-0.051 0 0.080016)
# Probe 19 (-0.043 0 0.080016)
# Probe 20 (-0.035 0 0.080016)
# Probe 21 (-0.027 0 0.080016)
# Probe 22 (-0.019 0 0.080016)
# Probe 23 (-0.011 0 0.080016)
# Probe 24 (-0.003 0 0.080016)
# Probe 25 (0.005 0 0.080016)
# Probe 26 (0.013 0 0.080016)
# Probe 27 (0.021 0 0.080016)
# Probe 28 (0.029 0 0.080016)
# Probe 29 (0.037 0 0.080016)
# Probe 30 (0.045 0 0.080016)
# Probe 31 (0.053 0 0.080016)
# Probe 32 (0.061 0 0.080016)
# Probe 33 (0.069 0 0.080016)
# Probe 34 (0.077 0 0.080016)
# Probe 35 (0.085 0 0.080016)
# Probe 36 (0.091 0 0.080016)
# Probe 37 (0.091 0 0.072016)
# Probe 38 (0.091 0 0.064016)
# Probe 39 (0.091 0 0.056016)
# Probe 40 (0.091 0 0.048016)
# Probe 41 (0.091 0 0.040016)
# Probe 42 (0.091 0 0.032016)
# Probe 43 (0.091 0 0.024016)
# Probe 44 (0.091 0 0.016016)
# Probe 45 (0.091 0 0.008016)
#       Probe             0             1             2             3             4             5             6             7             8             9            10            11            12            13            14            15            16            17            18            19            20            21            22            23            24            25            26            27            28            29            30            31            32            33            34            35            36            37            38            39            40            41            42            43            44            45
#        Time
        2.362       2.30307       2.33543       2.83898       3.69646       4.36937       4.09238        3.5024       2.49223     -0.965706      -13.8928      -26.2943      -26.0755      -26.1897      -25.9354      -26.5008       -28.427      -29.8305      -27.8557      -29.0348      -27.6109      -26.1191      -25.9447      -25.0432      -23.5738      -19.3556      -17.0646      -15.3949      -13.6036      -11.7408      -11.0127      -12.2738      -10.7629      -11.1329       -10.108      -8.48518      -8.24954       -8.1481      -9.75237      -10.2238      -10.4806      -10.1747      -10.0261       -9.9141      -8.87711      -7.63742      -8.44516
        2.364       2.84021       2.60022       3.02569         3.764       4.45876       4.24354       3.68362       2.55932      -1.41978      -14.7903      -26.4342      -26.1456      -26.3308      -26.5203      -26.0783      -28.8607      -27.0119      -28.4231      -27.4603      -26.0279      -25.9033      -25.1272      -25.1547      -23.1202      -19.8649      -17.2952       -15.656      -14.0173      -12.6393      -10.3673      -11.1679      -9.81321      -10.6917      -10.4802      -9.01348      -7.43509      -7.70097      -8.98569      -9.47092      -9.79687      -9.74636      -9.68699      -9.66942      -8.65556      -7.50709      -8.14469
        2.366       5.72213       5.31939       5.79502       6.50394       7.17641        7.0417       6.59589         5.089      0.927136      -12.7335      -23.3718      -23.4072      -23.8459      -24.3447      -25.4045      -25.9706      -23.6167      -24.1137      -24.5522      -22.8375      -22.4304      -22.3868      -21.4979       -20.468      -17.6508      -14.9467      -14.0019       -12.473      -11.0185      -8.62793      -8.05743      -6.45874      -7.95619      -7.54402      -7.98524      -5.51139      -5.42679      -6.38042      -6.77588      -7.17197      -7.30985      -7.26422      -7.16136      -6.47264      -5.69816      -5.87934
        2.368       10.9507       10.7011        11.047       11.8103       12.4346       12.2843         11.88       9.88501       5.70571      -8.48004      -19.8264      -19.0573      -18.7311      -19.9634      -21.0666       -18.705      -18.0218      -18.1966      -19.0613      -19.4053      -18.1932       -18.247      -17.5158      -16.3989       -12.807      -10.3026      -10.0071      -9.13994      -7.14584       -4.7369      -3.56784      -1.64872      -1.68824      -2.64268      -3.25329      -2.66817     -0.685701      -2.05105      -2.32591      -2.80698      -2.96156      -3.04897      -2.65986      -2.23116      -1.78993      -1.73318
         2.37       5.07795       4.87546       5.31323       6.12748       6.72096       6.49572       6.06203       3.87126      -0.23586      -14.1396       -24.799       -24.204      -24.1179      -26.6393      -25.6592      -25.3621      -24.8214      -24.2692      -24.0158      -24.7436      -23.5866      -24.3522      -23.3843      -21.8112      -18.7886      -16.7243      -15.9894      -15.1062      -13.2704         -10.5      -8.88599      -7.28378      -5.90524      -7.75055      -7.10527      -7.90021      -5.59134      -7.06687      -7.09931      -7.53571      -7.60012      -7.81238      -7.24492        -6.937      -6.63014      -6.51462
        2.372       5.82791       5.34546       5.97091       6.80277       7.35835       7.01848       6.47398       4.38799        0.2517      -13.3015      -22.5022      -21.3549      -24.7873      -25.0099      -24.1811       -25.257      -25.2527      -24.3134      -24.4567      -24.0089      -23.2929       -22.251      -21.1094      -20.1582      -19.2422      -17.1815      -16.0418      -14.5963      -13.3373      -10.9458      -8.79391      -7.87995      -5.76174       -6.6789       -7.2649      -5.16118         -4.99      -6.57406      -6.52198      -6.89945      -6.97756      -7.00372      -6.62768      -6.34432      -6.18279      -6.10651
        2.374       12.6077       12.1292       12.7086       13.5725       14.0958       13.6106       12.9162       11.1901         7.117      -6.53674      -16.4753      -15.8029      -16.5441      -17.3161      -17.0297      -16.9651      -18.3771       -18.096      -18.6228      -18.2741      -16.1964      -15.4172       -14.412      -13.7021      -13.6175      -11.9365      -10.0721      -8.51837      -7.76252      -6.04273      -4.12731       -2.8996       -1.2747      0.105239      -1.48671      0.877944       2.32253     -0.941538     -0.973374      -1.31718      -1.66504       -1.2526      -1.11884     -0.938695     -0.935077     -0.907942
        2.376       7.04473       6.83779       7.28393        8.1687       8.66204       8.11119       7.35401       6.06947       2.33998      -11.5494      -21.3674      -21.7635      -21.1757      -22.8423      -22.1676      -22.3854      -22.4996      -23.6123      -23.6775      -22.3089      -20.7876      -19.9864      -20.4821      -18.5087      -18.5553      -17.1256      -14.7288      -13.6189      -13.1706        -11.67       -10.096      -8.59084      -6.90218      -4.83505      -5.14285       -3.6884        -3.607      -5.24781      -5.29012      -5.61006       -6.0181       -5.5259      -5.43382      -5.44329      -5.51417      -5.61522
        2.378       8.69869       8.69968       9.11335       9.98001       10.4063       9.81125       9.04367       8.01683       4.65931      -9.14572      -20.8446      -20.2907      -18.6738      -19.4853      -20.2584      -21.4777      -21.3675      -21.4077      -22.2834      -20.8385      -19.4614      -18.3635      -17.7661      -16.8581      -16.8279      -14.8401      -12.6774      -12.3407      -12.2191      -11.0275      -9.71392      -8.77544      -6.40666      -3.47264      -3.30531      -2.18836      -3.49802      -4.10036      -3.83011      -4.28775      -4.27676      -4.12242      -4.04026      -4.18978      -4.28946       -4.5815
         2.38       9.80754       9.89571       10.3555       11.1781       11.4866       10.8748       10.1465       9.31004       6.31153      -7.02858      -18.5098      -18.3008      -18.7698      -18.5139      -18.9006      -20.0655      -20.6582      -20.8136      -20.3079      -19.5095      -19.1158       -17.866      -16.3389      -16.1821      -16.0722      -13.2971       -11.338      -11.3382      -11.3602      -10.6205       -9.7152      -9.77518      -7.00316      -2.09089      -1.91872      -1.45077       -2.2435      -3.37165      -2.87137      -3.52474      -3.17635      -3.12208      -3.19315      -3.35568      -3.48021      -3.92348
        2.382       9.63123       9.75311       10.2807       11.0356       11.2171       10.6137       9.99159       9.33863       6.69623      -5.82347      -18.0104      -17.3106      -17.5784       -18.427      -19.5956      -19.0426      -19.9344      -20.8994       -20.165       -18.982      -18.8545      -17.7899       -16.911       -16.848      -15.9745       -14.731      -11.4663      -11.4873      -11.3409      -10.6908      -10.0959      -10.9282      -9.22805      -2.69228      -1.30589      -1.79074      -1.77295      -3.46695      -2.89476      -3.23583      -3.28743       -3.0731      -3.29765      -3.42075      -3.57228      -4.11023
        2.384       11.3719       11.5272       12.0809       12.6922       12.8418        12.301       11.7965       11.4909       9.56709      -1.81228      -14.4842      -14.7007      -15.2816      -15.9714      -16.7087      -17.4966      -17.8387      -18.3922      -18.0539      -17.3924       -16.492      -15.7008      -16.3252      -16.5286       -14.623      -12.6013      -11.0528      -10.3494      -9.79918      -8.95813      -8.54958      -9.10974      -8.80385      -3.34601      0.218916    -0.0430167     0.0175733      -1.98797      -1.52412       -1.5485      -1.88648      -1.60449      -1.85811      -1.95769      -2.13261      -2.65917
        2.386       7.32146       7.45192       7.92287       8.43262       8.71294       8.24801       7.73774       7.85127       6.30447      -5.25123      -18.8022      -18.4574      -18.0957      -18.5109      -19.0868      -19.7167      -20.6242      -20.8028      -21.4082      -21.2829      -20.1825      -19.6207      -19.7788      -18.9202      -16.5553      -15.1327       -15.371      -14.3411       -13.543      -12.4655      -11.8193      -11.4565       -11.258      -9.12302      -5.42768      -3.42509      -3.42534       -5.2374      -4.89086      -5.03445      -5.09314      -4.87028      -5.07927      -5.17133      -5.34422      -5.76931
        2.388       8.53558       8.56753       8.78129       9.47292       9.72433       9.23016       8.63386       8.29621       6.61385      -3.74956      -15.6902      -15.9109      -16.6976       -16.477      -16.2935      -17.1933      -18.6011      -18.6635      -19.2176      -19.9295      -18.8484       -19.439      -17.0818      -17.5774      -15.3476      -14.0873       -14.772      -13.5513      -12.7108      -11.3391      -10.4156       -9.3676      -8.22282      -8.20256      -6.72176      -4.36439      -2.46059      -4.39292      -3.95328      -4.27502      -4.04293      -3.92648      -4.09809       -4.1813      -4.30717      -4.61884
         2.39       13.3275       13.0981       13.1446       14.1322       14.1826        13.605        12.891       11.8273       10.5069      0.875934      -12.3907      -11.4184      -10.7536      -11.7157      -11.3792      -11.1228      -12.0556      -12.7497      -12.9469      -14.1317      -15.2399      -14.2697      -11.7586      -11.7135      -10.4368      -10.4091      -10.8443       -9.5942      -8.56892      -7.19566      -6.42344      -4.90653      -2.62594      -2.60115      -2.56977      -1.70901     -0.305689     -0.823042     -0.304366     -0.409978    -0.0407119     -0.055158     -0.201093      -0.27365     -0.333322     -0.560615
        2.392       10.2115       9.55769       9.80057       10.8392       10.8338       10.2128       9.20223       7.67649       6.11429      -1.26091      -11.9963      -13.1167       -14.896      -14.5675      -14.5227      -14.7076      -12.9731       -13.553      -13.8191      -16.3718      -15.5336      -16.5474      -17.2424      -14.2799      -14.2417       -13.671      -13.7623      -12.9267       -11.078      -10.1237      -9.96392      -8.49844      -5.44639      -3.41792      -4.27154      -3.66707      -3.42685      -3.91387      -3.27816      -2.96187      -2.54701      -2.64589      -2.77574      -2.82888      -2.83044      -2.99618
        2.394       6.27778       5.37097       5.94904       6.73805         6.941       6.24153       4.86859       3.16613      0.818325      -7.22593      -20.0769      -18.1571      -15.7524      -16.3672      -18.5012       -19.008      -17.1375      -15.8177      -16.8376      -17.3455      -18.3334      -19.4211      -19.0701      -18.3054      -17.3605      -17.2586      -17.0171      -17.2398      -13.9413       -13.886      -14.2184        -13.38      -9.98439      -6.41949      -6.47478      -6.16864      -5.86126      -7.11273      -6.60193      -5.66208      -5.77688      -5.83525      -5.96261      -6.01372      -5.99162      -6.11148
        2.396       10.4639       9.83976       10.3461       10.8868       11.3593       10.4684       9.05053       7.47634       4.66996      -5.36777      -15.3814       -16.314      -18.4767      -13.4932      -11.4384      -12.5453      -14.0027      -11.7558      -11.3431       -12.072      -13.3573      -14.2622      -14.5726      -14.5538      -15.0864      -13.5489      -13.7732      -14.1952      -9.74452      -10.3204      -11.1134      -10.1664      -7.71484      -3.69319      -2.06243      -2.09384      -1.54027      -3.01426      -2.78107      -1.11634       -2.4325       -2.2689       -2.3954      -2.46279      -2.45277      -2.54236
        2.398       7.05795       6.88256       7.05925       7.48918       8.05376       7.09405       5.92414        4.4661       1.76793      -8.36325      -19.9125      -20.0472      -21.1864      -24.1999      -17.3973      -14.2363      -16.2374       -15.589      -14.2453      -14.2398       -14.711      -15.3871      -16.3605      -17.0342       -17.631      -16.6714      -17.9276       -17.358      -13.1291      -13.5162      -14.2637      -12.4249       -11.216       -7.1765      -4.81817      -4.77846      -4.11674      -5.13228      -4.83168      -4.34704      -5.19009      -4.86263      -4.91964      -5.02054      -5.02713      -5.09635
          2.4       7.17038       7.18112       7.08308       7.38352       8.03556       7.10537       6.07841       4.58069       1.84502      -7.98228      -17.0712      -17.2971      -19.3446      -22.2438      -24.4326      -16.9917      -14.6189      -16.0787      -14.6958      -13.0671      -13.1318      -14.2799       -14.939      -16.1783      -16.9177      -16.6793      -17.7078      -16.2133      -14.5463      -14.5357      -13.9282      -12.2467      -11.4802      -7.65846      -5.16149      -4.91865      -4.36827      -4.83069      -4.45335      -4.84858      -5.25242      -4.77952       -4.7387      -4.91111      -4.93052      -5.01703
        2.402       12.1734       12.1129       11.8166       12.0369       12.7471       11.9704        10.944       9.46521       6.61181      -3.84339      -15.0518      -14.4809      -13.8637      -14.8413      -19.1808      -18.6208      -10.7776      -10.7363       -11.537      -9.09279      -7.49097      -7.96642      -9.50645      -11.1119      -11.4045      -12.0803       -12.602      -10.9243      -10.9921      -10.3314      -8.86474       -8.4726      -7.45099      -4.16888       -1.7972      -1.20137        -0.868     -0.879346     -0.916477      -1.03084      -1.49246     -0.917008     -0.797101      -1.05552      -1.06798       -1.1732
        2.404       9.06266       8.69646       8.20401       8.52752       9.02303       8.79175        7.8701       6.47519       3.67177      -6.14674      -15.6562      -15.7205      -17.2603      -19.0896      -19.9173      -22.8936       -17.116      -15.2565      -13.9123      -13.3879        -11.12      -10.5844      -11.1302      -13.6158      -13.2485      -13.7382      -14.4921      -14.5255      -14.1934      -11.8742      -11.2146      -11.2649      -9.97509      -7.42588      -5.38631      -4.50425      -4.34644      -3.80162      -4.09495      -3.73118      -4.29151      -3.65876      -3.53154      -3.80133      -3.79316      -3.92163
        2.406       7.32831       6.31898       5.99035       6.30106       7.01982       7.04357       6.34311       4.94602       2.01408      -8.55288      -18.6269      -17.9751      -16.7622      -18.4917      -19.8969      -22.8301      -22.7112      -19.9809      -16.5489      -15.8789      -13.7947      -11.8789      -13.3196      -13.5155       -13.513      -13.2343      -14.3136      -15.2992      -13.3446      -12.4212      -12.5548      -12.3119      -10.9793      -8.82825      -7.40489      -6.70932      -6.56122      -5.71501      -5.83831      -5.32443      -5.87946      -5.22371      -5.15642      -5.40234      -5.37686      -5.52215
        2.408       4.59513       3.09908       3.07475       3.69182       4.56853       4.70162       3.90201       2.65509      0.177939      -11.0683      -20.3681      -20.7115      -20.6749      -21.4052      -22.3606      -22.0616      -26.3923      -24.5036      -21.1844      -20.1195      -18.2101       -15.626      -15.9887      -15.3397      -14.3183      -15.0745       -15.779      -14.9156      -14.6536      -14.0758      -14.4186       -13.896      -12.8708      -10.6569      -9.83977      -9.52043      -9.47017       -8.3859      -8.05756       -7.6685      -8.09583      -7.43372      -7.46052       -7.6656      -7.65073      -7.80061
         2.41       1.68671      0.880434      0.866901       1.86047       2.46879       2.10865       1.28696    -0.0969196      -1.35364      -13.0328      -23.3076      -23.2279       -23.643      -25.3197      -26.6402      -25.9045      -28.1293      -27.8293      -24.3018      -23.0063      -21.1106       -19.718      -20.0146      -17.2011      -18.1352      -17.6809      -16.6708      -16.8783      -16.9262      -16.2707      -16.5542      -15.9731      -15.2948      -13.0999      -12.4719      -12.2484      -12.4673      -11.0626      -10.3096      -10.1302      -10.3665      -9.61666      -9.95504      -10.0599      -10.0738      -10.2108
        2.412       5.04265       5.15721       4.86525        5.7514       6.37257       5.24056        4.6187       3.37933        1.6218      -9.27118      -21.2625      -21.5704      -21.3717      -22.0382       -23.263      -23.3904       -24.829      -25.4615      -21.5036      -20.7257      -18.8821       -18.988      -16.6177      -14.1492      -17.3413      -14.8523      -14.2637      -14.4662      -14.1443      -13.8456      -14.1149       -13.718      -13.2939      -11.4952      -10.5966      -10.1302      -10.5882       -8.8697      -7.93308      -7.98964      -8.07194      -7.06544      -7.95208      -7.93714      -8.01509       -8.1416
        2.414       10.6078       10.3793       10.4937        11.294       11.8249       10.6834       10.1768       9.31312       6.29976      -5.85366      -18.4441      -18.0457      -18.3072      -18.7791      -18.5689      -19.2095      -21.1845      -23.4782       -17.198      -16.9637      -14.9716      -16.2692      -12.8947      -10.6226      -12.2288      -11.2326      -10.7726      -10.3008       -9.8125      -9.92174      -10.2515      -9.83354      -9.69211      -8.35725       -7.1646      -6.33028      -6.63753      -5.08127      -4.16991      -4.39772      -4.36077      -3.32558      -4.56063      -4.45373      -4.58597      -4.68263
        2.416       7.06936       6.55979       7.14533       8.11145        8.7642       7.50518         7.111       6.11176       3.73621      -10.8549      -22.9385      -22.9749      -23.1747      -22.9109      -22.8943       -23.682       -24.873      -27.9447      -24.2129      -22.8773       -19.553      -19.4021      -18.3751      -15.5124      -15.6255      -16.0783      -14.7275      -13.6076      -13.3406      -13.7005      -13.8638      -13.1783      -13.1428      -12.1716      -10.9047      -9.82562      -9.87933      -8.45614      -7.76233      -8.00674      -7.91801      -7.07533      -8.31763       -8.1059      -8.27857      -8.33963
        2.418      -2.15419      -2.36792      -1.26767     -0.291038      0.469736      -0.60229     -0.325714      -3.14686      -5.44058      -16.8287      -29.4831      -29.0871      -29.8934      -30.6917      -31.2788      -32.4848      -34.3706      -33.0406       -34.679       -33.774       -30.717      -28.3967      -28.4761      -25.5881      -24.8097      -25.7362      -23.0714      -21.7661      -21.3403      -21.7797      -21.2973      -20.5065      -20.2427      -19.7139      -18.6048       -17.485       -17.293       -15.931      -15.6522      -15.7525      -15.6023       -15.106      -16.0758       -15.757      -15.9477      -15.9761
         2.42      -1.87309      -1.37518     -0.837299      0.477547       1.05046      0.679834      0.251674        -1.803      -5.73022      -19.4589      -32.5836      -32.5908      -31.1213       -29.796      -29.8613      -31.2229      -33.2008      -35.3655      -33.6906      -33.3712      -27.6131      -29.3524      -27.4688      -25.7089      -24.4129      -24.2419      -22.2176      -21.2952      -20.4998      -21.2311      -19.9779      -19.4473      -19.1686      -18.8403      -17.9216      -16.9341      -16.6886      -15.5135      -15.6346      -15.6296      -15.3825      -15.1975      -15.8509      -15.4489      -15.6353      -15.6465
        2.422       6.09494       6.61686       7.27361        7.9416         7.999       8.63874       7.76885       6.47753       3.64136      -12.2698      -24.8164      -25.0275      -26.9542      -26.5795      -22.1795      -22.0793      -23.5462      -27.5431      -16.7975      -24.6976      -20.1761       -22.953      -22.4293       -19.513      -17.7937      -16.8417      -14.6837      -13.4009      -12.8169       -13.795      -12.4459      -12.0417      -11.7952       -11.666      -11.0267      -10.0962      -9.89889      -9.01539      -9.37466      -9.35977      -8.98914      -8.98231      -9.45271      -8.97133      -9.14181      -9.14977
        2.424       5.20977       5.85523       6.27537       5.92666       6.39989       6.61674       6.29572       5.95911       3.73415      -10.4044      -24.7845      -24.5713      -24.7483      -25.9005      -26.2712      -24.5571      -24.6114      -26.1584      -23.8205      -24.3651      -21.7219      -24.1752      -24.9273      -20.6386      -18.6891      -16.4385      -14.3366      -13.1818       -12.862      -13.4136      -12.6511      -12.1448      -11.9278      -12.0416      -11.6975      -10.7299      -10.3329      -9.67839      -10.0742      -10.0607      -9.56848      -9.60861      -10.0023      -9.45454      -9.56143      -9.58827
        2.426       1.83604       2.19228       2.15143       2.49455        3.1067        3.1903       3.52711       3.71102       1.48813      -11.9478      -24.4508       -24.353      -25.0456      -25.8768      -28.3198      -28.3673      -27.2947      -27.6298      -29.3418      -25.6929      -24.3452      -27.0103      -27.4419      -24.8775      -21.7207      -20.0433      -16.3476      -15.1641      -14.5537      -14.6218      -14.4952      -13.9382      -13.6509      -13.9556      -13.9363      -13.3398      -12.5332      -11.9462      -12.2708      -12.2355      -11.7859      -11.6977      -12.1097      -11.5078      -11.5219      -11.5798
        2.428     -0.168311     -0.038608    -0.0418664      0.706162       1.17237       1.30421       2.07926       2.87121      0.986067      -12.7963      -26.2937      -25.7079      -25.6832       -26.331       -26.521      -26.8015      -27.5512      -29.7275       -28.967      -25.0425      -24.5645      -25.6957      -27.1811       -27.765      -23.7878       -20.505      -17.8679      -16.3822      -15.3773      -15.2711      -15.3334      -14.5135      -13.9955      -14.4757      -14.7364      -14.8154      -14.1068      -13.0624       -13.338      -13.2914      -13.0206      -12.7236      -13.1849      -12.5453       -12.465      -12.5453
         2.43      0.973246      0.446843      0.810386       1.41119        1.7164       2.04993       3.10459       4.42787       3.29428      -11.0986      -25.3595      -25.4018      -25.5862      -24.4465      -23.2845      -24.3076       -28.293      -26.2607      -27.3287      -24.1832      -23.7081      -23.5234      -23.7213      -25.7802       -22.445      -20.4303      -17.4274      -15.4612      -14.6145      -14.3824      -14.4251      -12.8572      -12.2392        -13.05      -13.2973      -13.2859      -13.7447      -12.0564      -12.2968       -12.278      -12.1514      -11.7491      -12.2119      -11.5983      -11.4079      -11.5085
        2.432       5.29831       4.24683       4.59279       4.89013       5.53118        5.9708       7.27698       9.22444        8.7417      -5.15292      -19.4591      -19.5021      -19.8141       -19.817      -19.6301      -20.3841      -21.6355      -21.2918      -21.2616      -18.4674      -20.2941      -19.4108      -20.2931      -20.9783      -17.3794      -17.5332      -14.7255       -12.177      -11.9039      -11.2208      -11.1184      -8.71735      -7.97633      -8.28651      -8.88623      -9.26554      -8.74075      -8.33697      -8.58825      -8.62428      -8.55874      -8.21489      -8.61578      -8.05342      -7.74989      -7.88277
        2.434        7.7475       6.63312       6.78841       7.34911       8.17895       8.69539       10.2614       12.4775       11.7903      -1.31155      -15.4914      -14.8733      -15.3702      -15.5704      -16.2623      -16.7533      -16.3904       -17.147      -15.7347      -14.9727      -16.5226      -17.5841      -18.1949        -16.96      -15.4279      -15.2817      -13.5559      -11.2147      -11.1891      -9.58241      -8.89833      -6.42967      -5.42967      -4.76658      -5.62024      -5.93936      -4.27916      -5.61316       -5.9171      -6.00917      -5.93859      -5.78816      -6.00244      -5.51493      -5.16063      -5.29417
        2.436       3.68427       2.83042       3.13577       3.62989       4.60455       5.33579       7.45294       9.52143       8.16532      -4.98821      -19.2232      -19.1648      -19.3957      -19.9577      -19.9988      -18.4868      -18.9302      -20.2722      -17.1046      -18.6543      -18.5724      -19.1266      -21.3307      -20.0343       -18.363      -17.5095      -17.2858      -16.3945      -16.0334      -13.7149      -11.8321      -9.65131      -8.52387      -7.53659      -8.09957      -8.77877      -6.59406      -8.01722      -8.35953      -8.51722      -8.40942      -8.51014      -8.44359      -8.05002      -7.69051      -7.80438
        2.438       4.24114       3.92561       4.18807       4.56441       5.48628       6.49671       9.25767       10.9091       9.30564      -3.23503      -15.4262      -16.6929      -18.8547      -20.3944      -19.2688      -18.1809      -17.4531      -17.8526      -14.9788      -16.3251      -18.3326      -16.5592      -19.1779      -21.5212      -18.0613        -15.16      -15.7387       -16.279      -15.9296      -13.7515      -10.7612      -8.82433      -7.51215      -6.78367      -6.48594      -7.61489      -5.59343      -6.66266      -7.05421      -7.31127      -7.19354      -7.53122      -7.20144       -6.8904      -6.58819      -6.69292
         2.44       2.04886       2.12814       2.21125       2.48088       3.46673       4.64168       7.72279       8.71838       6.76952       -6.7324      -20.8052       -17.115      -20.1314      -21.7334      -21.0975       -21.961      -19.9663       -18.447      -18.6864      -17.2556      -18.1598      -19.0863       -20.934      -26.3691      -19.2467      -15.9326      -16.8286      -17.4417      -17.5985      -15.7755      -12.4138      -11.2839       -9.8592      -8.61104      -7.96705      -8.35222      -7.05041      -7.91631      -8.26516      -8.57321      -8.53802      -8.99047      -8.49062      -8.18943       -7.9805        -8.134
        2.442       5.74452       5.88565       5.85405       6.11356       7.18816       8.73024       11.8435       11.9777       9.69159      -4.46082      -19.5006      -20.5088      -15.5804      -16.4774      -16.6902      -18.3699       -17.733      -12.2083      -15.7201      -13.2659       -13.298      -13.1603      -14.8023      -19.1411      -21.4289      -14.7346      -14.3033      -14.1097      -13.8876      -12.0227      -9.05563      -8.90422      -8.10236      -5.75904      -5.03105      -4.70655      -3.91991       -4.7103      -4.91438      -5.23004       -5.3947      -5.82676      -5.22808      -4.93437      -4.85128      -5.06721
        2.444       6.93442       6.92741       6.86037       7.21557       8.43232       10.9247       13.3074        12.999        10.491      -3.28013      -15.5004      -16.6812      -19.9491      -17.5752      -17.1701      -16.9261      -19.0669      -11.9686      -13.5178      -11.3574      -12.0826       -11.844      -14.3592      -14.8104      -17.2102       -15.968      -15.5684      -14.9426      -13.2619      -10.3366       -9.1191      -8.70842      -8.74205       -6.2591      -4.61074      -3.95734      -3.18976      -3.84082      -3.81974      -4.09307      -4.46008      -4.79305       -4.1573      -3.85788      -3.91301       -4.1331