# Probe 0 (-0.35 0 0.005)
# Probe 1 (-0.35 0 0.0155)
# Probe 2 (-0.35 0 0.02653)
# Probe 3 (-0.35 0 0.0381)
# Probe 4 (-0.35 0 0.05026)
# Probe 5 (-0.35 0 0.06302)
# Probe 6 (-0.35 0 0.07642)
# Probe 7 (-0.35 0 0.08)
# Probe 8 (-0.35 0 0.09049)
# Probe 9 (-0.35 0 0.10527)
# Probe 10 (-0.35 0 0.12078)
# Probe 11 (-0.35 0 0.13707)
# Probe 12 (-0.35 0 0.15417)
# Probe 13 (-0.35 0 0.17213)
# Probe 14 (-0.35 0 0.19099)
# Probe 15 (-0.35 0 0.2)
# Probe 16 (-0.35 0 0.21079)
# Probe 17 (-0.35 0 0.23157)
# Probe 18 (-0.35 0 0.2534)
# Probe 19 (-0.35 0 0.27632)
# Probe 20 (-0.35 0 0.30039)
# Probe 21 (-0.35 0 0.32566)
# Probe 22 (-0.35 0 0.35219)
# Probe 23 (-0.35 0 0.38005)
# Probe 24 (-0.35 0 0.4093)
# Probe 25 (-0.35 0 0.44002)
# Probe 26 (-0.35 0 0.47227)
# Probe 27 (-0.35 0 0.50613)
# Probe 28 (-0.35 0 0.54169)
# Probe 29 (-0.35 0 0.57903)
# Probe 30 (-0.35 0 0.61823)
# Probe 31 (-0.35 0 0.65939)
# Probe 32 (-0.35 0 0.70261)
# Probe 33 (-0.35 0 0.74799)
# Probe 34 (-0.35 0 0.79564)
# Probe 35 (-0.35 0 0.84567)
# Probe 36 (-0.35 0 0.8982)
# Probe 37 (-0.35 0 0.95336)
# Probe 38 (-0.35 0 1.01128)
# Probe 39 (-0.35 0 1.0721)
# Probe 40 (-0.35 0 1.13595)
# Probe 41 (-0.35 0 1.203)
# Probe 42 (-0.35 0 1.2734)
# Probe 43 (-0.35 0 1.34732)
# Probe 44 (-0.35 0 1.42493)
# Probe 45 (-0.35 0 1.50643)
# Probe 46 (-0.35 0 1.592)
# Probe 47 (-0.35 0 1.68185)
# Probe 48 (-0.35 0 1.77619)
# Probe 49 (-0.35 0 1.87525)
# Probe 50 (-0.35 0 1.97927)
# Probe 51 (-0.35 0 2.08848)
# Probe 52 (-0.35 0 2.20315)
# Probe 53 (-0.35 0 2.32356)
# Probe 54 (-0.35 0 2.44999)
#       Probe             0             1             2             3             4             5             6             7             8             9            10            11            12            13            14            15            16            17            18            19            20            21            22            23            24            25            26            27            28            29            30            31            32            33            34            35            36            37            38            39            40            41            42            43            44            45            46            47            48            49            50            51            52            53            54
#        Time
        9.482        3.4109       3.41327       3.15005        3.0761       2.87717       2.14859       2.09103       2.11235       2.20597       2.25773       2.13859       2.03196       1.90718       1.67456       1.55981       1.46239       1.33996       1.05602      0.916605      0.815112      0.616728      0.333006      0.246116      0.127675     0.0960657    -0.0851268     -0.200222     -0.630443       -1.1346       -1.1346     -0.651141     -0.394566     -0.634469     -0.650204     -0.850253      -1.12827      -1.01853     -0.890433       -1e+300       -1e+300       -1e+300       -1e+300       -1e+300       -1e+300       -1e+300       -1e+300       -1e+300       -1e+300       -1e+300       -1e+300       -1e+300       -1e+300       -1e+300       -1e+300       -1e+300
        9.484       9.59366        9.6186        9.2817       9.03348        8.8376       8.26431       8.04739       8.01701       8.23618       8.49456       8.42052       8.29833       8.10493       7.87828       7.77191       7.69554       7.57484       7.26099       7.15128       7.06568       6.87071        6.6448        6.5316       6.42435       6.37601       6.20528       6.12227       5.80233       5.27973       5.27973       5.58144       5.86858       5.68085       5.71146       5.49024       5.24308       5.40342       5.46329       -1e+300       -1e+300       -1e+300       -1e+300       -1e+300       -1e+300       -1e+300       -1e+300       -1e+300       -1e+300       -1e+300       -1e+300       -1e+300       -1e+300       -1e+300       -1e+300       -1e+300
        9.486         9.398       9.45532       9.02481       8.73929       8.54086       8.22797       8.10636       8.02129       8.21138       8.50109       8.39355       8.22797       8.00608       7.71216       7.62132       7.55516       7.44305       7.17908       7.02166       6.94557        6.7729       6.56637        6.4326        6.3345       6.27077       6.10056       6.04156       5.84517       5.23544       5.23544       5.40952       5.69786       5.58914       5.67375       5.48067       5.26629       5.46531        5.4875       -1e+300       -1e+300       -1e+300       -1e+300       -1e+300       -1e+300       -1e+300       -1e+300       -1e+300       -1e+300       -1e+300       -1e+300       -1e+300       -1e+300       -1e+300       -1e+300       -1e+300
        9.488        7.2236        7.2403       6.85153       6.64767       6.52528       6.45024       6.48623       6.48587       6.63652        6.7244       6.49946       6.28093       6.03396       5.60404       5.48408       5.44214       5.34908        5.1352       4.96029       4.90037       4.67814       4.50839       4.39374       4.31095       4.24252       4.04387       3.99294       3.90611       3.31341       3.31341       3.43351       3.57006       3.51552        3.6569       3.43396       3.21648       3.54024       3.44918       -1e+300       -1e+300       -1e+300       -1e+300       -1e+300       -1e+300       -1e+300       -1e+300       -1e+300       -1e+300       -1e+300       -1e+300       -1e+300       -1e+300       -1e+300       -1e+300       -1e+300
         9.49       8.34175        8.1978       7.99148        7.9445       7.90597       8.09218       8.14218       8.16399       8.27974       8.24399       7.87764       7.61454       7.35145        6.8894       6.69447       6.65579       6.59763       6.37353       6.15799       6.04887        5.7746       5.72146       5.62598       5.55785        5.4892        5.2279       5.17383       5.11509       4.53607       4.53607       4.54223       4.58592       4.56422       4.78366       4.53019       4.36567       4.59513       4.50929       -1e+300       -1e+300       -1e+300       -1e+300       -1e+300       -1e+300       -1e+300       -1e+300       -1e+300       -1e+300       -1e+300       -1e+300       -1e+300       -1e+300       -1e+300       -1e+300       -1e+300
        9.492      -1.57926      -1.80019      -2.04991      -1.96259      -1.91681      -1.70757      -1.65252       -1.6818      -1.66585      -1.73786      -2.11662      -2.40639       -2.6249      -3.01742      -3.27415      -3.36774        -3.463      -3.66952      -3.95828      -4.18188      -4.38185      -4.37775       -4.4685      -4.55742      -4.62256       -4.9779      -5.03888      -5.11895      -5.58136      -5.58136      -5.69377      -5.78289      -5.81858      -5.55515      -5.84609      -6.03412      -5.80211      -5.93146       -1e+300       -1e+300       -1e+300       -1e+300       -1e+300       -1e+300       -1e+300       -1e+300       -1e+300       -1e+300       -1e+300       -1e+300       -1e+300       -1e+300       -1e+300       -1e+300       -1e+300
        9.494       4.59125       4.45787        3.9651       4.06988       4.14968       4.31973       4.31595       4.30522       4.31334       4.21136       3.85969       3.57935        3.3865       3.04657       2.81341       2.68051       2.54261       2.37733       2.09977       1.87515       1.76103       1.78215        1.7268        1.7277       1.70065       1.31869       1.28947        1.2385      0.868278      0.868278      0.841809      0.735886      0.717619       1.16598      0.906191      0.764329       1.07593      0.886278       -1e+300       -1e+300       -1e+300       -1e+300       -1e+300       -1e+300       -1e+300       -1e+300       -1e+300       -1e+300       -1e+300       -1e+300       -1e+300       -1e+300       -1e+300       -1e+300       -1e+300
        9.496       14.1288       14.1212       13.5092       13.5891       13.8157       13.9313       13.8351       13.8928       13.9225       13.8361       13.5525       13.2366       12.9799       12.6691       12.4765       12.3152       12.2105       12.0343       11.8211       11.6529       11.5569       11.5572       11.5099       11.5821       11.5724       11.1827       11.1684       11.1434       10.8464       10.8464       10.8734       10.7014       10.7586       11.2928       11.1869       11.0578       11.3716        11.204       -1e+300       -1e+300       -1e+300       -1e+300       -1e+300       -1e+300       -1e+300       -1e+300       -1e+300       -1e+300       -1e+300       -1e+300       -1e+300       -1e+300       -1e+300       -1e+300       -1e+300
        9.498       6.99955       7.09599       6.66845       6.83324       7.12581       7.18401       7.09259       7.12951       7.12311       7.01081       6.85795       6.51761       6.15911       5.92905       5.73841       5.57138       5.46887       5.22015       5.03285       4.90952       4.79805       4.73781       4.67207       4.70673       4.65787       4.23639       4.19198       4.16308       3.95745       3.95745       3.91496       3.68471       3.70996        4.1674       4.17438       4.07664       4.29274       4.19233       -1e+300       -1e+300       -1e+300       -1e+300       -1e+300       -1e+300       -1e+300       -1e+300       -1e+300       -1e+300       -1e+300       -1e+300       -1e+300       -1e+300       -1e+300       -1e+300       -1e+300
          9.5        6.5029       6.53779       6.25435       6.41802       6.81336       6.80591       6.77051       6.75873       6.70384       6.51587       6.43122       6.00933       5.72499        5.5634       5.34058       5.18397       5.06935       4.85082       4.70113       4.56633       4.43755       4.30942       4.22557       4.26541       4.19484       3.77861        3.7142       3.70975       3.54904       3.54904       3.50307       3.29696        3.2965       3.69178       3.78988       3.77205        3.9174       3.89335       -1e+300       -1e+300       -1e+300       -1e+300       -1e+300       -1e+300       -1e+300       -1e+300       -1e+300       -1e+300       -1e+300       -1e+300       -1e+300       -1e+300       -1e+300       -1e+300       -1e+300
        9.502       5.86849       5.74553       5.51256       5.67088       6.13367       6.07178       6.06098       6.04866        6.0121       5.88122       5.61269       5.16993       4.85359       4.68834       4.42287       4.28491       4.20389        4.0149       3.93979        3.7721       3.57476       3.42075       3.38069       3.43994         3.344       2.93952       2.86748       2.86484       2.75766       2.75766       2.64591       2.48076       2.44413       2.80269       2.98282       2.93824       3.04217       3.04801       -1e+300       -1e+300       -1e+300       -1e+300       -1e+300       -1e+300       -1e+300       -1e+300       -1e+300       -1e+300       -1e+300       -1e+300       -1e+300       -1e+300       -1e+300       -1e+300       -1e+300
        9.504      -2.64787      -2.90912      -3.11988       -2.8749       -2.4804      -2.57268      -2.60809      -2.60461       -2.6163      -2.76133      -3.22507      -3.61718      -3.93371      -4.22479      -4.48909      -4.54459      -4.53852      -4.72182      -4.89233      -5.10845      -5.42533      -5.55298      -5.53022      -5.45546      -5.57432       -5.9272      -6.00061      -6.04499      -6.05676      -6.05676      -6.25342      -6.37159      -6.44245      -6.19193      -5.93924      -5.97669      -5.90567      -5.82082       -1e+300       -1e+300       -1e+300       -1e+300       -1e+300       -1e+300       -1e+300       -1e+300       -1e+300       -1e+300       -1e+300       -1e+300       -1e+300       -1e+300       -1e+300       -1e+300       -1e+300
        9.506      -2.32875      -2.91432      -2.99322      -2.66935      -2.44055      -2.55885      -2.58883      -2.59262       -2.6407       -2.8993      -3.35355      -3.84262      -4.08514      -4.43349      -4.66175      -4.69742      -4.69119      -4.66242      -4.83643      -5.17836      -5.61743       -5.6009       -5.5744       -5.5391      -5.65084      -5.90737      -5.94591      -6.02979      -5.96661      -5.96661      -6.25202      -6.28649      -6.36351      -6.19155      -5.92222      -6.00048      -5.95857      -5.85194       -1e+300       -1e+300       -1e+300       -1e+300       -1e+300       -1e+300       -1e+300       -1e+300       -1e+300       -1e+300       -1e+300       -1e+300       -1e+300       -1e+300       -1e+300       -1e+300       -1e+300
        9.508       1.28458      0.658902      0.735365        1.0143       1.10597      0.946605      0.898773       0.87172      0.764319      0.497272     0.0375283     -0.437617     -0.851472      -1.04949      -1.43492      -1.48512      -1.41605      -1.26234      -1.24162      -1.54284      -2.00738      -1.77889      -1.89065      -1.98372      -2.08985      -2.23512        -2.227      -2.36467      -2.23263      -2.23263      -2.62614      -2.56623      -2.65542      -2.51184      -2.25045      -2.34871      -2.28493      -2.15174       -1e+300       -1e+300       -1e+300       -1e+300       -1e+300       -1e+300       -1e+300       -1e+300       -1e+300       -1e+300       -1e+300       -1e+300       -1e+300       -1e+300       -1e+300       -1e+300       -1e+300
         9.51      0.883515      0.603253      0.630792      0.905022      0.881054      0.651326      0.518688      0.503156      0.384684      0.174628     -0.299275     -0.661817     -0.950676      -1.36919      -1.88375      -1.94311      -1.85645      -1.49625      -1.50356      -1.58606      -1.91046      -1.54145      -1.81137      -2.18144      -2.28999      -2.30888      -2.23562       -2.4168      -2.24241      -2.24241      -2.64254      -2.47311      -2.52203      -2.44061      -2.21178      -2.27046      -2.23183      -2.09029       -1e+300       -1e+300       -1e+300       -1e+300       -1e+300       -1e+300       -1e+300       -1e+300       -1e+300       -1e+300       -1e+300       -1e+300       -1e+300       -1e+300       -1e+300       -1e+300       -1e+300
        9.512       1.00892      0.946541      0.835488       1.10381       1.01562      0.734211      0.539606      0.551443      0.460967      0.222869     -0.152494     -0.455271     -0.665694       -1.1141      -1.57106      -1.76748        -1.742      -1.35246      -1.31469      -1.30917      -1.67503      -1.27196      -1.51996      -2.05528      -2.18619      -2.09024      -1.95559      -2.19714      -2.00117      -2.00117      -2.35656      -2.10553      -2.14573      -2.09939      -1.93079      -1.98352      -1.94685       -1.8133       -1e+300       -1e+300       -1e+300       -1e+300       -1e+300       -1e+300       -1e+300       -1e+300       -1e+300       -1e+300       -1e+300       -1e+300       -1e+300       -1e+300       -1e+300       -1e+300       -1e+300
        9.514     -0.808628     -0.709809     -0.938796     -0.780469     -0.812091      -1.12644      -1.27968       -1.3193      -1.48986      -1.76644      -2.03451      -2.10704      -2.23974      -2.59881      -2.90488      -3.11231      -3.08223      -2.94741      -2.93292      -3.15601      -3.75055      -3.29116      -3.43024      -3.93353      -4.10041      -3.92266      -3.73565      -4.06927      -3.78689      -3.78689       -4.1891      -3.79507      -3.87291      -3.85145      -3.73866      -3.81435      -3.78907      -3.66303       -1e+300       -1e+300       -1e+300       -1e+300       -1e+300       -1e+300       -1e+300       -1e+300       -1e+300       -1e+300       -1e+300       -1e+300       -1e+300       -1e+300       -1e+300       -1e+300       -1e+300
        9.516      -4.25059       -3.9615      -4.24856      -4.25026      -4.20144      -4.50909      -4.61137      -4.71894      -4.93679      -5.24686      -5.45764      -5.43514      -5.43416      -5.67684      -5.77877      -5.57946      -5.29305        -6.035      -6.39047      -6.47721      -6.89054      -6.67302      -6.86184      -7.18096      -7.34706      -7.11742      -6.92862      -7.32889      -7.06246      -7.06246      -7.18925      -6.85543      -6.81257       -6.8185      -6.72888      -6.75286      -6.73981      -6.64513       -1e+300       -1e+300       -1e+300       -1e+300       -1e+300       -1e+300       -1e+300       -1e+300       -1e+300       -1e+300       -1e+300       -1e+300       -1e+300       -1e+300       -1e+300       -1e+300       -1e+300
        9.518       1.89688       2.33333       2.10577       2.07328       2.05421       1.72376       1.60961       1.51132       1.29238      0.842887      0.711812      0.914213      0.917416       0.75636      0.840892      0.908101      0.787871      0.378387      0.103156  -0.000172811     -0.239189     -0.306789     -0.501814     -0.819064     -0.910146     -0.689772     -0.517778      -0.97934     -0.711019     -0.711019      -0.66108     -0.281048     -0.237032     -0.230777     -0.157579     -0.184282     -0.182281      -0.10406       -1e+300       -1e+300       -1e+300       -1e+300       -1e+300       -1e+300       -1e+300       -1e+300       -1e+300       -1e+300       -1e+300       -1e+300       -1e+300       -1e+300       -1e+300       -1e+300       -1e+300
         9.52       7.27993        7.6258       7.43846       7.39084       7.30345       6.96926       6.79174       6.68806       6.36617       5.82074       5.80811       6.20126        6.2673       6.18574       6.18606       5.93568       5.61216        5.7738        5.5866       5.51017       5.32643       5.00966       4.83685       4.46721       4.46995       4.59277       4.70028       4.22957         4.429         4.429       4.57291       4.92243        5.0454       5.01171       5.06186       5.04088       5.02416       5.06342       -1e+300       -1e+300       -1e+300       -1e+300       -1e+300       -1e+300       -1e+300       -1e+300       -1e+300       -1e+300       -1e+300       -1e+300       -1e+300       -1e+300       -1e+300       -1e+300       -1e+300
        9.522       6.64426        6.5927       6.37254       6.39103       6.26524       5.92633        5.6826       5.57173       5.12777       4.69383       4.85015       5.18156        5.2493       5.19478         5.173       4.82734       4.68704       4.92021       4.72174       4.60435       4.45393       4.08963       3.87286       3.49439       3.52486        3.5954       3.66217       3.22909       3.45739       3.45739        3.6698       4.00699       4.15147       4.14701       4.26582       4.20777       4.20654       4.24429       -1e+300       -1e+300       -1e+300       -1e+300       -1e+300       -1e+300       -1e+300       -1e+300       -1e+300       -1e+300       -1e+300       -1e+300       -1e+300       -1e+300       -1e+300       -1e+300       -1e+300
        9.524       6.16976       5.67231       5.45358       5.60268       5.42835       5.14257       4.90802       4.75759         4.259       4.02299       4.18317       4.34185       4.42382       4.41163        4.3238       4.24516       4.15223       4.17183       3.91859       3.71848       3.58165       3.23413       3.06561       2.72488       2.71876       2.76495       2.77397        2.4483       2.66402       2.66402       2.93512        3.2156       3.37383       3.39785       3.53417       3.48176        3.4633       3.53051       -1e+300       -1e+300       -1e+300       -1e+300       -1e+300       -1e+300       -1e+300       -1e+300       -1e+300       -1e+300       -1e+300       -1e+300       -1e+300       -1e+300       -1e+300       -1e+300       -1e+300
        9.526      -2.33199      -2.76934      -3.02817      -2.75604      -2.93764      -3.13737      -3.39771      -3.60219      -3.91823      -4.08842      -4.05608      -4.03548      -3.96174      -3.84187      -3.80979      -3.92996      -4.14486      -4.23419      -4.62843      -4.82522      -5.02851      -5.28556      -5.38045      -5.69672      -5.78999      -5.78511      -5.83185      -6.07815       -5.8383       -5.8383      -5.57511      -5.35628      -5.22004       -5.1614      -5.01797      -5.09493      -5.06986      -5.07004       -1e+300       -1e+300       -1e+300       -1e+300       -1e+300       -1e+300       -1e+300       -1e+300       -1e+300       -1e+300       -1e+300       -1e+300       -1e+300       -1e+300       -1e+300       -1e+300       -1e+300
        9.528      0.280233     0.0653307    -0.0353235     0.0383427    -0.0431807     -0.155457       -0.4284     -0.612153      -0.82867      -1.02165      -1.03074      -1.10229      -1.07294     -0.897293     -0.890542        -1.148      -1.41243      -1.46896      -1.82697      -1.98922      -2.26462      -2.42306      -2.42997      -2.72992      -2.85698      -2.84714      -2.89509      -3.06962      -2.78392      -2.78392      -2.60135      -2.42791      -2.28941      -2.17086      -2.00294      -2.07237      -2.00292      -1.99651       -1e+300       -1e+300       -1e+300       -1e+300       -1e+300       -1e+300       -1e+300       -1e+300       -1e+300       -1e+300       -1e+300       -1e+300       -1e+300       -1e+300       -1e+300       -1e+300       -1e+300
         9.53       9.54106       9.52648       9.44074       9.22044       9.28455       9.16676       8.91626        8.7837        8.5957       8.51217       8.38046       8.23908       8.19223       8.26385        7.9583        7.8234       7.72472       7.67409       7.40077       7.26524       7.00636       6.84701       6.83669       6.65461        6.5187       6.52663       6.51084       6.36312       6.65811       6.65811       6.66983       6.78814       6.91241        7.0671       7.24423       7.16142       7.25124       7.24546       -1e+300       -1e+300       -1e+300       -1e+300       -1e+300       -1e+300       -1e+300       -1e+300       -1e+300       -1e+300       -1e+300       -1e+300       -1e+300       -1e+300       -1e+300       -1e+300       -1e+300
        9.532       11.1454       11.1437       10.9858       10.6567       10.7361       10.5147       10.3143       10.2259       10.0906       10.1956       9.87668       9.66172       9.67315       9.55624       9.18088       9.12929       9.05569       8.91061         8.726       8.51924       8.37517       8.17837       8.11009       8.02009        7.9016       7.87199       7.89894        7.7559       8.08306       8.08306       7.96781        8.0278       8.12561       8.29355       8.44818       8.36851       8.44568       8.43751       -1e+300       -1e+300       -1e+300       -1e+300       -1e+300       -1e+300       -1e+300       -1e+300       -1e+300       -1e+300       -1e+300       -1e+300       -1e+300       -1e+300       -1e+300       -1e+300       -1e+300
        9.534       7.04648       6.94495       6.60849       6.39038       6.34083       6.03871       5.91735       5.87015       5.89258        5.9996       5.57984       5.44039       5.60222       5.25797       4.98813       4.85267       4.79037       4.57936       4.33119       4.10048       3.93352       3.75725        3.6522       3.53246       3.44873       3.41246       3.48154       3.33244       3.58047       3.58047        3.5299       3.53999       3.60989       3.78463        3.9402       3.87496       3.93308       3.91792       -1e+300       -1e+300       -1e+300       -1e+300       -1e+300       -1e+300       -1e+300       -1e+300       -1e+300       -1e+300       -1e+300       -1e+300       -1e+300       -1e+300       -1e+300       -1e+300       -1e+300
        9.536      -1.43233      -1.78286      -2.36919      -2.36399      -2.50992      -2.87052      -2.90518       -2.8713      -2.66161      -2.81046      -3.10998      -3.18329      -2.89004      -3.65374      -3.71293      -3.83948      -3.96096      -4.27505       -4.5214       -4.7164      -4.85674      -5.06649      -5.15404      -5.31322      -5.38234      -5.39036      -5.29671      -5.43275      -5.24882      -5.24882      -5.28539      -5.30559       -5.2602      -5.07953      -4.90257      -4.96258      -4.92799      -4.95666       -1e+300       -1e+300       -1e+300       -1e+300       -1e+300       -1e+300       -1e+300       -1e+300       -1e+300       -1e+300       -1e+300       -1e+300       -1e+300       -1e+300       -1e+300       -1e+300       -1e+300
        9.538        3.3949        2.9477       2.34297       2.49359       2.36748       2.05824       2.08525       2.16872       2.36127       2.19907       1.82616        1.5362       1.40903      0.973053       1.12399      0.989743       0.92389       0.78074      0.514961      0.272756      0.152961    -0.0248376    -0.0827735     -0.195102     -0.265531     -0.243688     -0.139791     -0.239318     -0.144144     -0.144144     -0.160579     -0.196355     -0.175862     0.0122046      0.223636      0.171682      0.193458      0.151118       -1e+300       -1e+300       -1e+300       -1e+300       -1e+300       -1e+300       -1e+300       -1e+300       -1e+300       -1e+300       -1e+300       -1e+300       -1e+300       -1e+300       -1e+300       -1e+300       -1e+300
         9.54       7.31123       7.09011       6.75382       6.72981       6.71707       6.60853       6.60986       6.65926       6.87216       6.52849       5.99867       5.31993       4.94216       5.00341       5.57519       5.49875       5.43488       5.17251        4.9001       4.81458       4.65974       4.56985       4.50976       4.45415       4.36162       4.39348       4.53398       4.45834       4.47973       4.47973       4.51147       4.47863       4.48362       4.65179       4.89847       4.87988       4.87819       4.82913       -1e+300       -1e+300       -1e+300       -1e+300       -1e+300       -1e+300       -1e+300       -1e+300       -1e+300       -1e+300       -1e+300       -1e+300       -1e+300       -1e+300       -1e+300       -1e+300       -1e+300
        9.542       3.70822       3.67276       3.46307        3.3331        3.3317       3.58318       3.50896       3.52713        3.5476       2.86279       2.21686       1.39774       1.03301       1.36455       1.98573       1.93547       1.84967       1.54777       1.68991       1.49152       1.35652       1.32379       1.22683        1.2025       1.08338       1.08355       1.17636       1.20535       1.24843       1.24843       1.28784       1.25822       1.24411       1.41344        1.7081       1.70221       1.70105       1.61565       -1e+300       -1e+300       -1e+300       -1e+300       -1e+300       -1e+300       -1e+300       -1e+300       -1e+300       -1e+300       -1e+300       -1e+300       -1e+300       -1e+300       -1e+300       -1e+300       -1e+300
        9.544      0.845112      0.858476      0.709224      0.700939      0.756304       1.11959      0.890689      0.804377      0.584253     -0.190797      -1.03559      -1.55003      -1.52609       -1.3653       -1.0452     -0.929479     -0.980677      -1.14229      -1.16185      -1.33788      -1.41516      -1.44119      -1.56454      -1.59547      -1.73589      -1.75715       -1.6786      -1.60407      -1.54354      -1.54354      -1.52393      -1.55856      -1.60536      -1.46669       -1.1604      -1.13393       -1.1286      -1.24662       -1e+300       -1e+300       -1e+300       -1e+300       -1e+300       -1e+300       -1e+300       -1e+300       -1e+300       -1e+300       -1e+300       -1e+300       -1e+300       -1e+300       -1e+300       -1e+300       -1e+300
        9.546      0.440498      0.587382      0.496949      0.634465      0.733785       0.69416      0.482792      0.404602      0.155028     -0.285946      -1.08681      -1.56324      -1.57119      -1.40089      -1.05077      -1.07336      -1.17321      -1.21758      -1.40309      -1.45365      -1.50778      -1.60783       -1.6934      -1.75838      -1.90446      -1.91866      -1.83359      -1.72372      -1.62143      -1.62143      -1.63157      -1.64389      -1.70036      -1.57812      -1.24712      -1.19654      -1.18903      -1.30564       -1e+300       -1e+300       -1e+300       -1e+300       -1e+300       -1e+300       -1e+300       -1e+300       -1e+300       -1e+300       -1e+300       -1e+300       -1e+300       -1e+300       -1e+300       -1e+300       -1e+300
        9.548       2.96365       3.17151       3.07311       3.25441       3.27726       2.78707       2.62105       2.51806       2.35608       2.38131       1.68389       1.31341       1.35879       1.75047       1.87222       1.59732       1.45839       1.30233       1.28441       1.37395        1.2572        1.1405        1.1038      0.983401      0.842437      0.818307      0.918195        1.0417       1.13477       1.13477       1.16029       1.17182       1.11392        1.2067       1.56202       1.64738       1.64767       1.47039       -1e+300       -1e+300       -1e+300       -1e+300       -1e+300       -1e+300       -1e+300       -1e+300       -1e+300       -1e+300       -1e+300       -1e+300       -1e+300       -1e+300       -1e+300       -1e+300       -1e+300
         9.55       6.87762       6.99569       6.90824       7.01724       6.82558       5.89399       5.77448       5.68197       5.68443       5.68407       5.25072       5.19346       5.38641       5.76413       5.57099       5.47448       5.44173        5.1702       5.02104       5.35412       5.32052       5.18055       5.16862       5.03321       4.90633       4.89961       4.99697       5.11274       5.16964       5.16964        5.2518       5.28937       5.22296       5.29255       5.65236       5.75287       5.75456       5.70082       -1e+300       -1e+300       -1e+300       -1e+300       -1e+300       -1e+300       -1e+300       -1e+300       -1e+300       -1e+300       -1e+300       -1e+300       -1e+300       -1e+300       -1e+300       -1e+300       -1e+300