# Probe 0 (-0.35 0 0.005)
# Probe 1 (-0.35 0 0.0155)
# Probe 2 (-0.35 0 0.02653)
# Probe 3 (-0.35 0 0.0381)
# Probe 4 (-0.35 0 0.05026)
# Probe 5 (-0.35 0 0.06302)
# Probe 6 (-0.35 0 0.07642)
# Probe 7 (-0.35 0 0.08)
# Probe 8 (-0.35 0 0.09049)
# Probe 9 (-0.35 0 0.10527)
# Probe 10 (-0.35 0 0.12078)
# Probe 11 (-0.35 0 0.13707)
# Probe 12 (-0.35 0 0.15417)
# Probe 13 (-0.35 0 0.17213)
# Probe 14 (-0.35 0 0.19099)
# Probe 15 (-0.35 0 0.2)
# Probe 16 (-0.35 0 0.21079)
# Probe 17 (-0.35 0 0.23157)
# Probe 18 (-0.35 0 0.2534)
# Probe 19 (-0.35 0 0.27632)
# Probe 20 (-0.35 0 0.30039)
# Probe 21 (-0.35 0 0.32566)
# Probe 22 (-0.35 0 0.35219)
# Probe 23 (-0.35 0 0.38005)
# Probe 24 (-0.35 0 0.4093)
# Probe 25 (-0.35 0 0.44002)
# Probe 26 (-0.35 0 0.47227)
# Probe 27 (-0.35 0 0.50613)
# Probe 28 (-0.35 0 0.54169)
# Probe 29 (-0.35 0 0.57903)
# Probe 30 (-0.35 0 0.61823)
# Probe 31 (-0.35 0 0.65939)
# Probe 32 (-0.35 0 0.70261)
# Probe 33 (-0.35 0 0.74799)
# Probe 34 (-0.35 0 0.79564)
# Probe 35 (-0.35 0 0.84567)
# Probe 36 (-0.35 0 0.8982)
# Probe 37 (-0.35 0 0.95336)
# Probe 38 (-0.35 0 1.01128)
# Probe 39 (-0.35 0 1.0721)
# Probe 40 (-0.35 0 1.13595)
# Probe 41 (-0.35 0 1.203)
# Probe 42 (-0.35 0 1.2734)
# Probe 43 (-0.35 0 1.34732)
# Probe 44 (-0.35 0 1.42493)
# Probe 45 (-0.35 0 1.50643)
# Probe 46 (-0.35 0 1.592)
# Probe 47 (-0.35 0 1.68185)
# Probe 48 (-0.35 0 1.77619)
# Probe 49 (-0.35 0 1.87525)
# Probe 50 (-0.35 0 1.97927)
# Probe 51 (-0.35 0 2.08848)
# Probe 52 (-0.35 0 2.20315)
# Probe 53 (-0.35 0 2.32356)
# Probe 54 (-0.35 0 2.44999)
#       Probe             0             1             2             3             4             5             6             7             8             9            10            11            12            13            14            15            16            17            18            19            20            21            22            23            24            25            26            27            28            29            30            31            32            33            34            35            36            37            38            39            40            41            42            43            44            45            46            47            48            49            50            51            52            53            54
#        Time
        9.482             (3.39671 -0.205787 0.18131)             (3.99269 -0.229865 -0.171884)             (3.86123 0.510354 0.322383)             (3.6824 1.16423 0.767341)             (3.8738 1.48294 0.783682)             (4.04871 1.07612 0.384009)             (5.05669 0.588029 -0.274963)             (5.50936 0.66204 -0.404935)             (6.05755 1.00226 -0.476884)             (6.41765 1.33446 -0.362696)             (6.21222 0.752885 -0.426379)             (6.54758 0.0190903 -0.478259)             (6.48886 -0.0689446 -0.529836)             (6.60142 0.0659613 -0.882976)             (6.6701 0.482962 -0.641998)             (6.64264 0.445793 -0.82676)             (6.5092 0.672791 -0.849476)             (6.57381 0.482293 -0.579591)             (6.84276 0.338024 -0.314122)             (6.94401 0.448531 -0.251249)             (6.98157 0.52227 -0.117611)             (7.28687 0.480152 -0.0752926)             (7.51153 0.348195 -0.187664)             (7.34591 0.376413 -0.296658)             (7.2893 0.36015 -0.35752)             (7.29274 0.595044 -0.557715)             (7.33889 0.749187 -0.636456)             (7.73859 0.741246 -0.504809)             (8.25043 -0.0527186 -0.279752)             (8.25043 -0.0527186 -0.279752)             (7.83714 -0.380194 -0.448949)             (7.85425 -0.783982 -0.296122)             (7.91032 -0.986989 0.146539)             (8.13774 -0.255158 0.34819)             (8.63347 -0.536296 -0.116834)             (8.70425 -0.334516 -0.280074)             (8.6281 0.416144 0.00740313)             (8.79307 0.773388 -0.217292)             (-1e+300 -1e+300 -1e+300)             (-1e+300 -1e+300 -1e+300)             (-1e+300 -1e+300 -1e+300)             (-1e+300 -1e+300 -1e+300)             (-1e+300 -1e+300 -1e+300)             (-1e+300 -1e+300 -1e+300)             (-1e+300 -1e+300 -1e+300)             (-1e+300 -1e+300 -1e+300)             (-1e+300 -1e+300 -1e+300)             (-1e+300 -1e+300 -1e+300)             (-1e+300 -1e+300 -1e+300)             (-1e+300 -1e+300 -1e+300)             (-1e+300 -1e+300 -1e+300)             (-1e+300 -1e+300 -1e+300)             (-1e+300 -1e+300 -1e+300)             (-1e+300 -1e+300 -1e+300)             (-1e+300 -1e+300 -1e+300)
        9.484             (3.3837 -0.326455 -0.0514069)             (3.92532 -0.134671 0.011101)             (3.79034 0.0145089 0.419976)             (3.65783 0.97368 0.833033)             (3.84211 1.35343 0.610242)             (4.23176 1.11469 0.115076)             (4.71866 0.675585 0.108888)             (5.17589 0.490822 0.0446281)             (6.05223 0.824884 -0.224067)             (6.32918 1.28352 -0.325173)             (6.43246 0.570201 -0.370209)             (6.4728 0.0445019 -0.518737)             (6.46935 0.0996796 -0.559487)             (6.46677 0.10173 -0.842192)             (6.62478 0.356768 -0.683692)             (6.59204 0.38242 -0.578922)             (6.49586 0.398645 -0.502257)             (6.60803 0.191669 -0.264714)             (6.73246 0.238548 -0.313386)             (6.79527 0.441316 -0.289812)             (7.0174 0.567212 -0.188247)             (7.37516 0.245572 -0.120572)             (7.51252 0.200944 -0.181582)             (7.31835 0.218912 -0.324823)             (7.2396 0.263638 -0.359554)             (7.30084 0.659977 -0.423812)             (7.45556 0.876667 -0.49969)             (7.82194 0.890552 -0.373068)             (8.29268 0.167604 -0.156777)             (8.29268 0.167604 -0.156777)             (7.83861 -0.190059 -0.412744)             (7.84807 -0.723533 -0.290904)             (7.93079 -1.03479 0.0901375)             (8.16389 -0.221216 0.312145)             (8.57286 -0.404632 -0.0842133)             (8.67009 -0.233175 -0.261552)             (8.61628 0.489444 0.0815049)             (8.7689 0.810922 -0.133537)             (-1e+300 -1e+300 -1e+300)             (-1e+300 -1e+300 -1e+300)             (-1e+300 -1e+300 -1e+300)             (-1e+300 -1e+300 -1e+300)             (-1e+300 -1e+300 -1e+300)             (-1e+300 -1e+300 -1e+300)             (-1e+300 -1e+300 -1e+300)             (-1e+300 -1e+300 -1e+300)             (-1e+300 -1e+300 -1e+300)             (-1e+300 -1e+300 -1e+300)             (-1e+300 -1e+300 -1e+300)             (-1e+300 -1e+300 -1e+300)             (-1e+300 -1e+300 -1e+300)             (-1e+300 -1e+300 -1e+300)             (-1e+300 -1e+300 -1e+300)             (-1e+300 -1e+300 -1e+300)             (-1e+300 -1e+300 -1e+300)
        9.486             (3.27304 -0.379026 -0.200052)             (3.87994 -0.333411 0.0366602)             (3.91062 -0.478964 0.489454)             (3.7044 0.635409 0.82529)             (3.61149 1.02456 0.925636)             (4.30547 1.15238 0.363155)             (4.60578 0.964573 0.589108)             (4.89012 0.719798 0.640935)             (5.73328 0.616497 0.415037)             (6.41059 1.10333 -0.27991)             (6.46697 0.347754 -0.38267)             (6.43973 0.151894 -0.513093)             (6.51466 0.372222 -0.664783)             (6.52815 0.263668 -0.818381)             (6.70138 0.114359 -0.680505)             (6.71646 0.121272 -0.375387)             (6.6778 0.124857 -0.121101)             (6.59576 0.180905 -0.08204)             (6.60343 0.25633 -0.400534)             (6.71377 0.531208 -0.417936)             (7.18909 0.557412 -0.34378)             (7.5485 0.0637204 -0.251394)             (7.50066 0.0914634 -0.239267)             (7.31041 0.0844897 -0.368489)             (7.23112 0.180605 -0.363558)             (7.37084 0.672612 -0.294385)             (7.60081 0.878867 -0.349479)             (7.87194 0.965864 -0.256451)             (8.31618 0.38342 -0.0232087)             (8.31618 0.38342 -0.0232087)             (7.84274 0.0157096 -0.350226)             (7.84638 -0.631451 -0.255386)             (7.94849 -1.05655 0.0503344)             (8.18884 -0.202765 0.281644)             (8.52051 -0.276384 -0.0479019)             (8.63782 -0.129213 -0.235457)             (8.61365 0.538831 0.150558)             (8.74795 0.816576 -0.0450797)             (-1e+300 -1e+300 -1e+300)             (-1e+300 -1e+300 -1e+300)             (-1e+300 -1e+300 -1e+300)             (-1e+300 -1e+300 -1e+300)             (-1e+300 -1e+300 -1e+300)             (-1e+300 -1e+300 -1e+300)             (-1e+300 -1e+300 -1e+300)             (-1e+300 -1e+300 -1e+300)             (-1e+300 -1e+300 -1e+300)             (-1e+300 -1e+300 -1e+300)             (-1e+300 -1e+300 -1e+300)             (-1e+300 -1e+300 -1e+300)             (-1e+300 -1e+300 -1e+300)             (-1e+300 -1e+300 -1e+300)             (-1e+300 -1e+300 -1e+300)             (-1e+300 -1e+300 -1e+300)             (-1e+300 -1e+300 -1e+300)
        9.488             (3.11545 -0.336973 -0.200132)             (3.88957 -0.776975 0.0778858)             (4.0862 -0.836273 0.469164)             (3.75975 0.12413 0.793059)             (3.64471 0.64988 0.935633)             (4.19398 0.876145 0.801456)             (4.63555 0.945369 0.852447)             (4.82043 0.934519 0.921447)             (5.33548 0.644661 0.890985)             (6.41028 0.935808 -0.147072)             (6.4261 0.221217 -0.393708)             (6.49169 0.260665 -0.382063)             (6.47091 0.484937 -0.527102)             (6.62755 0.365382 -0.560764)             (6.85593 0.0244248 -0.399298)             (6.92284 -0.0526334 -0.290441)             (6.95115 -0.0253346 -0.201279)             (6.51905 0.307946 -0.277579)             (6.49341 0.393901 -0.546889)             (6.79182 0.684143 -0.598474)             (7.44404 0.470941 -0.528588)             (7.68635 -0.0395345 -0.407834)             (7.49267 -0.0136414 -0.353736)             (7.33446 -0.0108569 -0.419962)             (7.26967 0.125044 -0.364546)             (7.49237 0.6212 -0.182606)             (7.75827 0.760767 -0.208903)             (7.90886 0.953172 -0.147058)             (8.32181 0.582542 0.114904)             (8.32181 0.582542 0.114904)             (7.84878 0.222236 -0.260772)             (7.8469 -0.509399 -0.192205)             (7.95882 -1.04753 0.0316738)             (8.20434 -0.202032 0.258741)             (8.47833 -0.162592 -0.0134396)             (8.60657 -0.0278236 -0.20676)             (8.6174 0.562681 0.20855)             (8.73023 0.792117 0.0419364)             (-1e+300 -1e+300 -1e+300)             (-1e+300 -1e+300 -1e+300)             (-1e+300 -1e+300 -1e+300)             (-1e+300 -1e+300 -1e+300)             (-1e+300 -1e+300 -1e+300)             (-1e+300 -1e+300 -1e+300)             (-1e+300 -1e+300 -1e+300)             (-1e+300 -1e+300 -1e+300)             (-1e+300 -1e+300 -1e+300)             (-1e+300 -1e+300 -1e+300)             (-1e+300 -1e+300 -1e+300)             (-1e+300 -1e+300 -1e+300)             (-1e+300 -1e+300 -1e+300)             (-1e+300 -1e+300 -1e+300)             (-1e+300 -1e+300 -1e+300)             (-1e+300 -1e+300 -1e+300)             (-1e+300 -1e+300 -1e+300)
         9.49             (3.03509 -0.219114 -0.0900843)             (3.98684 -0.841527 0.324698)             (4.28091 -0.778383 0.687561)             (3.90354 -0.282788 0.777274)             (3.93931 0.274206 0.694756)             (4.31298 0.570842 0.857329)             (4.69215 0.466367 0.799582)             (4.83061 0.630339 0.798787)             (5.09752 0.831729 0.702168)             (6.22371 0.828069 -0.105379)             (6.51791 0.327766 -0.379953)             (6.65541 0.36391 -0.291778)             (6.47785 0.450854 -0.306689)             (6.68537 0.44769 -0.109024)             (6.93406 0.0814728 0.0480555)             (6.96518 -0.0485872 0.0307968)             (6.91714 -0.0181619 -0.0878185)             (6.4951 0.382689 -0.505038)             (6.431 0.600312 -0.674886)             (7.02144 0.817068 -0.74357)             (7.60919 0.366078 -0.668426)             (7.66073 -0.0888493 -0.50492)             (7.51162 -0.120215 -0.472199)             (7.40078 -0.0578202 -0.460499)             (7.35711 0.106244 -0.347942)             (7.64883 0.519491 -0.0819275)             (7.91351 0.573063 -0.0851329)             (7.95713 0.852084 -0.0358969)             (8.31183 0.756473 0.252081)             (8.31183 0.756473 0.252081)             (7.86316 0.421984 -0.147657)             (7.85283 -0.360869 -0.107007)             (7.96199 -1.00308 0.0368363)             (8.20687 -0.217019 0.245559)             (8.44896 -0.0693256 0.0159472)             (8.58002 0.0678113 -0.1792)             (8.6283 0.561738 0.252658)             (8.71945 0.742268 0.121848)             (-1e+300 -1e+300 -1e+300)             (-1e+300 -1e+300 -1e+300)             (-1e+300 -1e+300 -1e+300)             (-1e+300 -1e+300 -1e+300)             (-1e+300 -1e+300 -1e+300)             (-1e+300 -1e+300 -1e+300)             (-1e+300 -1e+300 -1e+300)             (-1e+300 -1e+300 -1e+300)             (-1e+300 -1e+300 -1e+300)             (-1e+300 -1e+300 -1e+300)             (-1e+300 -1e+300 -1e+300)             (-1e+300 -1e+300 -1e+300)             (-1e+300 -1e+300 -1e+300)             (-1e+300 -1e+300 -1e+300)             (-1e+300 -1e+300 -1e+300)             (-1e+300 -1e+300 -1e+300)             (-1e+300 -1e+300 -1e+300)
        9.492             (3.11482 -0.0931295 0.0349732)             (4.10646 -0.483931 0.665312)             (4.33089 -0.44157 1.16134)             (4.10855 -0.354794 0.835356)             (4.10422 0.214854 0.539001)             (4.66003 0.45954 0.493115)             (4.78804 0.348252 0.3294)             (4.9197 0.499139 0.30828)             (4.94861 0.94848 0.124727)             (6.05313 0.740987 -0.206371)             (6.52485 0.434058 -0.372038)             (6.84652 0.419405 -0.333805)             (6.6215 0.367075 -0.271253)             (6.71276 0.408099 0.174622)             (6.92177 0.191742 0.219425)             (6.9286 -0.0048425 0.0774919)             (6.71997 0.107256 0.0227171)             (6.5073 0.457445 -0.525841)             (6.42549 0.780283 -0.690528)             (7.20738 0.919533 -0.769878)             (7.58356 0.412473 -0.727838)             (7.50142 -0.082948 -0.516635)             (7.54109 -0.17987 -0.542304)             (7.49456 -0.0589892 -0.471335)             (7.47195 0.124893 -0.297132)             (7.80062 0.393186 0.032117)             (8.03701 0.382512 0.0366407)             (8.01308 0.684959 0.0848312)             (8.28191 0.892387 0.383453)             (8.28191 0.892387 0.383453)             (7.87451 0.601445 -0.0159236)             (7.85109 -0.199834 -0.00750488)             (7.94599 -0.925417 0.0656187)             (8.18114 -0.24907 0.243167)             (8.41927 -0.00737842 0.0398661)             (8.54631 0.14918 -0.154538)             (8.63321 0.531131 0.281687)             (8.70273 0.66567 0.190004)             (-1e+300 -1e+300 -1e+300)             (-1e+300 -1e+300 -1e+300)             (-1e+300 -1e+300 -1e+300)             (-1e+300 -1e+300 -1e+300)             (-1e+300 -1e+300 -1e+300)             (-1e+300 -1e+300 -1e+300)             (-1e+300 -1e+300 -1e+300)             (-1e+300 -1e+300 -1e+300)             (-1e+300 -1e+300 -1e+300)             (-1e+300 -1e+300 -1e+300)             (-1e+300 -1e+300 -1e+300)             (-1e+300 -1e+300 -1e+300)             (-1e+300 -1e+300 -1e+300)             (-1e+300 -1e+300 -1e+300)             (-1e+300 -1e+300 -1e+300)             (-1e+300 -1e+300 -1e+300)             (-1e+300 -1e+300 -1e+300)
        9.494             (3.26432 0.0775803 0.0286241)             (4.26351 -0.308178 0.821153)             (4.09877 -0.33573 1.32457)             (4.12777 -0.084827 1.11338)             (3.99174 0.373799 0.669727)             (4.72974 0.521434 0.0626804)             (4.92938 0.806219 -0.246269)             (5.11571 0.865577 -0.187784)             (4.98682 1.01504 -0.231369)             (5.99787 0.697948 -0.226989)             (6.40982 0.338821 -0.258558)             (6.82258 0.266361 -0.384531)             (6.68334 0.0931255 -0.2709)             (6.62412 0.189073 0.11941)             (6.70383 0.128841 0.0753185)             (6.66471 -0.00846499 -0.0519842)             (6.55973 0.278206 -0.0959515)             (6.50724 0.564458 -0.451681)             (6.47666 0.890448 -0.549572)             (7.16169 1.04885 -0.636596)             (7.45307 0.700772 -0.686554)             (7.38339 0.0281467 -0.499904)             (7.55255 -0.151009 -0.556651)             (7.61501 -0.0181972 -0.44961)             (7.60744 0.186342 -0.207977)             (7.93041 0.276736 0.181258)             (8.12956 0.248323 0.1782)             (8.08194 0.502597 0.208941)             (8.2538 0.984402 0.497515)             (8.2538 0.984402 0.497515)             (7.90378 0.752672 0.121384)             (7.86208 -0.0341267 0.0957945)             (7.93296 -0.814765 0.109562)             (8.14822 -0.291209 0.249674)             (8.40916 0.0228452 0.0573796)             (8.52928 0.212215 -0.135437)             (8.65415 0.472459 0.295816)             (8.70235 0.568132 0.241606)             (-1e+300 -1e+300 -1e+300)             (-1e+300 -1e+300 -1e+300)             (-1e+300 -1e+300 -1e+300)             (-1e+300 -1e+300 -1e+300)             (-1e+300 -1e+300 -1e+300)             (-1e+300 -1e+300 -1e+300)             (-1e+300 -1e+300 -1e+300)             (-1e+300 -1e+300 -1e+300)             (-1e+300 -1e+300 -1e+300)             (-1e+300 -1e+300 -1e+300)             (-1e+300 -1e+300 -1e+300)             (-1e+300 -1e+300 -1e+300)             (-1e+300 -1e+300 -1e+300)             (-1e+300 -1e+300 -1e+300)             (-1e+300 -1e+300 -1e+300)             (-1e+300 -1e+300 -1e+300)             (-1e+300 -1e+300 -1e+300)
        9.496             (3.23876 0.314347 -0.0628338)             (4.35404 -0.653954 0.82885)             (3.99991 -0.321914 1.21762)             (3.92109 0.350356 1.34539)             (3.77521 0.51309 0.926281)             (4.46938 0.709165 0.11294)             (5.01679 1.1581 -0.210768)             (5.23009 0.995921 -0.13069)             (5.13412 0.963387 -0.104918)             (6.06462 0.672937 -0.180282)             (6.47005 0.298922 -0.101319)             (6.7128 0.00952882 -0.345014)             (6.71678 -0.136337 -0.0880694)             (6.49612 0.105422 -0.0997725)             (6.4828 -0.0332038 -0.216297)             (6.42848 0.066477 -0.131331)             (6.47293 0.485334 -0.127068)             (6.46589 0.663263 -0.327257)             (6.53753 0.966257 -0.310862)             (6.9668 1.18035 -0.347017)             (7.277 1.10588 -0.47123)             (7.39006 0.277504 -0.522789)             (7.51375 -0.0419974 -0.547911)             (7.73964 0.0606232 -0.402499)             (7.73295 0.298879 -0.0888379)             (8.01279 0.192693 0.372609)             (8.18214 0.194277 0.358449)             (8.14321 0.362294 0.332348)             (8.23503 1.03264 0.58887)             (8.23503 1.03264 0.58887)             (7.9554 0.867722 0.255587)             (7.88891 0.123474 0.19546)             (7.93052 -0.677145 0.162039)             (8.11542 -0.334841 0.265392)             (8.4174 0.0223019 0.0727858)             (8.53299 0.254188 -0.118175)             (8.69465 0.388464 0.299137)             (8.7203 0.454103 0.274916)             (-1e+300 -1e+300 -1e+300)             (-1e+300 -1e+300 -1e+300)             (-1e+300 -1e+300 -1e+300)             (-1e+300 -1e+300 -1e+300)             (-1e+300 -1e+300 -1e+300)             (-1e+300 -1e+300 -1e+300)             (-1e+300 -1e+300 -1e+300)             (-1e+300 -1e+300 -1e+300)             (-1e+300 -1e+300 -1e+300)             (-1e+300 -1e+300 -1e+300)             (-1e+300 -1e+300 -1e+300)             (-1e+300 -1e+300 -1e+300)             (-1e+300 -1e+300 -1e+300)             (-1e+300 -1e+300 -1e+300)             (-1e+300 -1e+300 -1e+300)             (-1e+300 -1e+300 -1e+300)             (-1e+300 -1e+300 -1e+300)
        9.498             (3.03292 0.354343 -0.0177479)             (4.36511 -1.05127 0.881443)             (4.18844 -0.1512 1.04954)             (3.77263 0.568854 1.19084)             (3.53964 0.705077 0.917474)             (4.36773 0.77374 0.443366)             (4.93307 1.08519 0.195438)             (5.11525 0.863722 0.20405)             (5.14728 0.970186 0.00990717)             (6.15499 0.698309 -0.165668)             (6.76916 0.499412 -0.159268)             (6.8256 -0.0282572 -0.468518)             (6.9542 0.259008 -0.248539)             (6.54463 0.230533 -0.359359)             (6.55491 0.10992 -0.275346)             (6.56819 0.38105 -0.079732)             (6.61129 0.6142 0.00505759)             (6.41569 0.72752 -0.0715212)             (6.58957 1.05365 -0.0936264)             (6.84113 1.25824 -0.00458916)             (7.06713 1.41768 -0.0706929)             (7.43666 0.61498 -0.591079)             (7.44213 0.124717 -0.555729)             (7.82168 0.178154 -0.340572)             (7.797 0.463699 0.0362553)             (8.02056 0.141185 0.585931)             (8.17308 0.203395 0.574735)             (8.15495 0.301745 0.456302)             (8.21017 1.03748 0.655175)             (8.21017 1.03748 0.655175)             (8.0068 0.937614 0.376972)             (7.9115 0.259415 0.287913)             (7.9231 -0.526354 0.218239)             (8.07058 -0.374819 0.292136)             (8.42084 -0.0085229 0.0937967)             (8.53787 0.269397 -0.0959141)             (8.73355 0.279946 0.298482)             (8.73481 0.325699 0.290434)             (-1e+300 -1e+300 -1e+300)             (-1e+300 -1e+300 -1e+300)             (-1e+300 -1e+300 -1e+300)             (-1e+300 -1e+300 -1e+300)             (-1e+300 -1e+300 -1e+300)             (-1e+300 -1e+300 -1e+300)             (-1e+300 -1e+300 -1e+300)             (-1e+300 -1e+300 -1e+300)             (-1e+300 -1e+300 -1e+300)             (-1e+300 -1e+300 -1e+300)             (-1e+300 -1e+300 -1e+300)             (-1e+300 -1e+300 -1e+300)             (-1e+300 -1e+300 -1e+300)             (-1e+300 -1e+300 -1e+300)             (-1e+300 -1e+300 -1e+300)             (-1e+300 -1e+300 -1e+300)             (-1e+300 -1e+300 -1e+300)
          9.5             (2.85167 0.0897524 0.168232)             (4.53399 -0.779555 0.864021)             (4.40655 0.263672 0.844526)             (3.79942 0.590952 0.893271)             (3.3664 0.836024 0.596736)             (4.44431 0.851014 0.361626)             (4.86639 0.872009 0.360306)             (4.96756 0.832789 0.254795)             (5.12833 1.12722 -0.0367827)             (6.16379 0.809584 -0.0564401)             (6.78015 0.499539 -0.413592)             (7.0741 0.325114 -0.678123)             (6.905 0.543342 -0.674968)             (6.78143 0.496848 -0.370143)             (6.84043 0.656638 0.023292)             (6.89529 0.754787 0.178894)             (6.88918 0.752676 0.240988)             (6.53251 0.767393 0.324982)             (6.64574 1.15191 0.0208262)             (6.88103 1.34079 0.246493)             (6.89868 1.54623 0.309512)             (7.37236 0.92762 -0.595845)             (7.39331 0.323986 -0.571578)             (7.84807 0.3448 -0.271749)             (7.78769 0.665751 0.137244)             (7.97029 0.113445 0.77275)             (8.12073 0.238129 0.79056)             (8.11578 0.328698 0.582006)             (8.18632 1.01098 0.693138)             (8.18632 1.01098 0.693138)             (8.0614 0.961044 0.472087)             (7.93607 0.366184 0.366449)             (7.9219 -0.373862 0.270461)             (8.03086 -0.402378 0.326762)             (8.42465 -0.0611202 0.12496)             (8.552 0.258476 -0.063594)             (8.7797 0.155942 0.300133)             (8.75394 0.190446 0.290442)             (-1e+300 -1e+300 -1e+300)             (-1e+300 -1e+300 -1e+300)             (-1e+300 -1e+300 -1e+300)             (-1e+300 -1e+300 -1e+300)             (-1e+300 -1e+300 -1e+300)             (-1e+300 -1e+300 -1e+300)             (-1e+300 -1e+300 -1e+300)             (-1e+300 -1e+300 -1e+300)             (-1e+300 -1e+300 -1e+300)             (-1e+300 -1e+300 -1e+300)             (-1e+300 -1e+300 -1e+300)             (-1e+300 -1e+300 -1e+300)             (-1e+300 -1e+300 -1e+300)             (-1e+300 -1e+300 -1e+300)             (-1e+300 -1e+300 -1e+300)             (-1e+300 -1e+300 -1e+300)             (-1e+300 -1e+300 -1e+300)
        9.502             (2.75446 -0.204459 0.322636)             (4.74509 -0.501322 0.752495)             (4.36365 0.745547 0.649373)             (3.80663 0.731675 0.543011)             (3.37094 0.827145 0.281393)             (4.46616 0.962423 0.0837369)             (4.89957 0.81211 0.245793)             (4.92827 1.00651 0.0630159)             (5.25937 1.30515 -0.0395827)             (6.10721 0.933324 0.114035)             (6.43817 0.335197 -0.43829)             (6.91672 0.439395 -0.780767)             (6.922 0.611507 -0.541208)             (6.99581 1.1907 -0.0496526)             (6.99189 1.36129 0.253902)             (6.96344 1.35482 0.282252)             (6.96389 1.29557 0.220982)             (6.85312 1.02674 0.279197)             (6.65503 1.23988 0.036548)             (7.00449 1.5093 0.321117)             (6.80277 1.58207 0.413503)             (7.09837 1.11409 -0.426706)             (7.34203 0.502174 -0.539145)             (7.82326 0.562725 -0.186185)             (7.71349 0.863932 0.199449)             (7.87992 0.0908838 0.887346)             (8.04951 0.258037 0.9572)             (8.03572 0.413943 0.709386)             (8.15986 0.964243 0.702506)             (8.15986 0.964243 0.702506)             (8.11129 0.935561 0.529783)             (7.95881 0.432528 0.425444)             (7.92798 -0.235576 0.313812)             (8.00405 -0.416205 0.365629)             (8.42543 -0.130429 0.170421)             (8.57331 0.218974 -0.0149532)             (8.83059 0.0217686 0.309631)             (8.77509 0.0510555 0.278943)             (-1e+300 -1e+300 -1e+300)             (-1e+300 -1e+300 -1e+300)             (-1e+300 -1e+300 -1e+300)             (-1e+300 -1e+300 -1e+300)             (-1e+300 -1e+300 -1e+300)             (-1e+300 -1e+300 -1e+300)             (-1e+300 -1e+300 -1e+300)             (-1e+300 -1e+300 -1e+300)             (-1e+300 -1e+300 -1e+300)             (-1e+300 -1e+300 -1e+300)             (-1e+300 -1e+300 -1e+300)             (-1e+300 -1e+300 -1e+300)             (-1e+300 -1e+300 -1e+300)             (-1e+300 -1e+300 -1e+300)             (-1e+300 -1e+300 -1e+300)             (-1e+300 -1e+300 -1e+300)             (-1e+300 -1e+300 -1e+300)
        9.504             (2.83859 -0.381236 0.414978)             (4.77044 -0.494576 0.633554)             (4.14522 1.01677 0.40395)             (3.66437 1.00353 0.16041)             (3.61497 0.884663 0.197032)             (4.6076 0.927275 0.0668325)             (4.88045 1.07073 -0.0449503)             (4.97419 1.33126 -0.15294)             (5.41219 1.26309 -0.0837239)             (6.00617 0.892739 -0.0381663)             (6.2837 0.465438 -0.326441)             (6.58826 0.415818 -0.563158)             (6.71741 1.23986 -0.322789)             (6.97422 1.82975 -0.32739)             (6.93218 1.73114 -0.430303)             (6.83879 1.83581 -0.444361)             (6.96419 1.80404 -0.509146)             (7.07963 1.72167 -0.371557)             (6.74645 1.42855 0.0198303)             (7.08332 1.69268 0.17188)             (6.75636 1.62644 0.229976)             (6.7495 1.13499 -0.20312)             (7.21306 0.629419 -0.409001)             (7.77217 0.818703 -0.0672895)             (7.5979 1.01682 0.228828)             (7.75944 0.0622099 0.910544)             (7.97493 0.248083 1.04172)             (7.93095 0.520925 0.828372)             (8.11756 0.913261 0.68603)             (8.11756 0.913261 0.68603)             (8.13949 0.867054 0.543298)             (7.96828 0.456191 0.460768)             (7.93229 -0.120359 0.345894)             (7.98809 -0.412937 0.404267)             (8.41526 -0.204532 0.230254)             (8.59069 0.155565 0.0527451)             (8.87532 -0.108794 0.330977)             (8.78817 -0.0840959 0.261339)             (-1e+300 -1e+300 -1e+300)             (-1e+300 -1e+300 -1e+300)             (-1e+300 -1e+300 -1e+300)             (-1e+300 -1e+300 -1e+300)             (-1e+300 -1e+300 -1e+300)             (-1e+300 -1e+300 -1e+300)             (-1e+300 -1e+300 -1e+300)             (-1e+300 -1e+300 -1e+300)             (-1e+300 -1e+300 -1e+300)             (-1e+300 -1e+300 -1e+300)             (-1e+300 -1e+300 -1e+300)             (-1e+300 -1e+300 -1e+300)             (-1e+300 -1e+300 -1e+300)             (-1e+300 -1e+300 -1e+300)             (-1e+300 -1e+300 -1e+300)             (-1e+300 -1e+300 -1e+300)             (-1e+300 -1e+300 -1e+300)