# Probe 0 (-0.35 0 0.005)
# Probe 1 (-0.35 0 0.0155)
# Probe 2 (-0.35 0 0.02653)
# Probe 3 (-0.35 0 0.0381)
# Probe 4 (-0.35 0 0.05026)
# Probe 5 (-0.35 0 0.06302)
# Probe 6 (-0.35 0 0.07642)
# Probe 7 (-0.35 0 0.08)
# Probe 8 (-0.35 0 0.09049)
# Probe 9 (-0.35 0 0.10527)
# Probe 10 (-0.35 0 0.12078)
# Probe 11 (-0.35 0 0.13707)
# Probe 12 (-0.35 0 0.15417)
# Probe 13 (-0.35 0 0.17213)
# Probe 14 (-0.35 0 0.19099)
# Probe 15 (-0.35 0 0.2)
# Probe 16 (-0.35 0 0.21079)
# Probe 17 (-0.35 0 0.23157)
# Probe 18 (-0.35 0 0.2534)
# Probe 19 (-0.35 0 0.27632)
# Probe 20 (-0.35 0 0.30039)
# Probe 21 (-0.35 0 0.32566)
# Probe 22 (-0.35 0 0.35219)
# Probe 23 (-0.35 0 0.38005)
# Probe 24 (-0.35 0 0.4093)
# Probe 25 (-0.35 0 0.44002)
# Probe 26 (-0.35 0 0.47227)
# Probe 27 (-0.35 0 0.50613)
# Probe 28 (-0.35 0 0.54169)
# Probe 29 (-0.35 0 0.57903)
# Probe 30 (-0.35 0 0.61823)
# Probe 31 (-0.35 0 0.65939)
# Probe 32 (-0.35 0 0.70261)
# Probe 33 (-0.35 0 0.74799)
# Probe 34 (-0.35 0 0.79564)
# Probe 35 (-0.35 0 0.84567)
# Probe 36 (-0.35 0 0.8982)
# Probe 37 (-0.35 0 0.95336)
# Probe 38 (-0.35 0 1.01128)
# Probe 39 (-0.35 0 1.0721)
# Probe 40 (-0.35 0 1.13595)
# Probe 41 (-0.35 0 1.203)
# Probe 42 (-0.35 0 1.2734)
# Probe 43 (-0.35 0 1.34732)
# Probe 44 (-0.35 0 1.42493)
# Probe 45 (-0.35 0 1.50643)
# Probe 46 (-0.35 0 1.592)
# Probe 47 (-0.35 0 1.68185)
# Probe 48 (-0.35 0 1.77619)
# Probe 49 (-0.35 0 1.87525)
# Probe 50 (-0.35 0 1.97927)
# Probe 51 (-0.35 0 2.08848)
# Probe 52 (-0.35 0 2.20315)
# Probe 53 (-0.35 0 2.32356)
# Probe 54 (-0.35 0 2.44999)
#       Probe             0             1             2             3             4             5             6             7             8             9            10            11            12            13            14            15            16            17            18            19            20            21            22            23            24            25            26            27            28            29            30            31            32            33            34            35            36            37            38            39            40            41            42            43            44            45            46            47            48            49            50            51            52            53            54
#        Time
       11.262       6.54248         6.347        6.1495       6.21219       6.10424       6.01959       6.02269       5.92546       5.80146       5.30519       4.98682       4.87365       4.89491       4.38825       4.11962       4.31813       4.22958       4.04642       3.82979       3.52988       3.30223       3.05188       2.89186       2.60354       2.47731       2.21349       2.03687       1.78699       1.61086       1.61086       1.45492       1.30043       1.33563       1.03486       1.05096       1.08363      0.999624       1.20529       -1e+300       -1e+300       -1e+300       -1e+300       -1e+300       -1e+300       -1e+300       -1e+300       -1e+300       -1e+300       -1e+300       -1e+300       -1e+300       -1e+300       -1e+300       -1e+300       -1e+300
       11.264       5.37825       5.24408       5.03766        5.1627       5.01362       4.83251       4.80373       4.72886       4.74459       4.21228        3.7723       3.71106       3.80803       3.32789       3.08113       2.98439       2.63489       2.93787       2.68994        2.4272         2.202        1.9503       1.79285       1.47538       1.34172       1.07785      0.896773      0.660721      0.464686      0.464686      0.245086     0.0478657      0.123655     -0.124629     -0.123019    -0.0770799     -0.181156     0.0249341       -1e+300       -1e+300       -1e+300       -1e+300       -1e+300       -1e+300       -1e+300       -1e+300       -1e+300       -1e+300       -1e+300       -1e+300       -1e+300       -1e+300       -1e+300       -1e+300       -1e+300
       11.266     -0.693043     -0.823808      -1.06563     -0.968169     -0.880935      -1.12288      -1.19985       -1.2336      -1.29416       -1.7814      -2.23618        -2.314      -2.36675      -2.92598      -3.02632      -3.23852       -3.7399      -3.42708      -3.53259      -3.69659      -3.89101      -4.19165      -4.36209      -4.70111      -4.81737      -5.10553      -5.28309       -5.5109      -5.70072      -5.70072      -5.95577      -6.18505      -6.01982      -6.32284      -6.32745      -6.27487      -6.40261      -6.16952       -1e+300       -1e+300       -1e+300       -1e+300       -1e+300       -1e+300       -1e+300       -1e+300       -1e+300       -1e+300       -1e+300       -1e+300       -1e+300       -1e+300       -1e+300       -1e+300       -1e+300
       11.268     -0.222676     -0.326394     -0.577669     -0.521907     -0.322193     -0.599084     -0.637391     -0.637469     -0.805747      -1.24945      -1.65855      -1.88348      -2.11483       -2.6066      -2.54155      -2.69296      -2.96644      -2.90884      -3.13246      -3.33113      -3.49501      -3.84109      -4.02575      -4.30988      -4.41633      -4.69255      -4.85515      -5.08148      -5.28376      -5.28376      -5.55297      -5.78018      -5.57483      -5.89315      -5.89506      -5.83348      -5.92688      -5.72395       -1e+300       -1e+300       -1e+300       -1e+300       -1e+300       -1e+300       -1e+300       -1e+300       -1e+300       -1e+300       -1e+300       -1e+300       -1e+300       -1e+300       -1e+300       -1e+300       -1e+300
        11.27       3.84091       3.79317       3.48028       3.52771       3.68951       3.58485        3.5122       3.44964       3.23315       2.89369       2.56608       2.29101       2.03635       1.77348       1.86522       1.82012       1.68731       1.33281      0.818094      0.654057      0.485326      0.110339    -0.0722657     -0.276979       -0.3837     -0.642222     -0.794533      -1.03865      -1.27476      -1.27476      -1.51634      -1.76337      -1.49249      -1.90193      -1.89553      -1.82743      -1.92429      -1.68888       -1e+300       -1e+300       -1e+300       -1e+300       -1e+300       -1e+300       -1e+300       -1e+300       -1e+300       -1e+300       -1e+300       -1e+300       -1e+300       -1e+300       -1e+300       -1e+300       -1e+300
       11.272       7.42731       7.31845       7.18789        7.0981       7.22393       7.07558       7.07227       7.01478       6.83398       6.57324       6.37843       6.15131       5.83096       5.59449       5.95714       5.39495       5.07122       4.56112       4.24052        4.3113       4.11149       3.74502       3.59605        3.4463       3.33499       3.10998       2.97605       2.71202       2.44741       2.44741         2.239       1.99193       2.24807       1.80171       1.83712       1.92081       1.87938       2.05901       -1e+300       -1e+300       -1e+300       -1e+300       -1e+300       -1e+300       -1e+300       -1e+300       -1e+300       -1e+300       -1e+300       -1e+300       -1e+300       -1e+300       -1e+300       -1e+300       -1e+300
       11.274       5.66108       5.60886       5.54699       5.59794       5.48007       5.04013       4.96948       5.00223       4.92176       4.77852       4.74123       4.57056       4.20821       3.49584       3.72306       3.37023       2.87872       2.25639       2.88139       2.72318       2.42029       2.12379       1.95234        1.7672       1.65164       1.46669       1.36435       1.09054      0.835873      0.835873      0.633354      0.370799      0.627826      0.169245      0.190443      0.282267      0.332677      0.498558       -1e+300       -1e+300       -1e+300       -1e+300       -1e+300       -1e+300       -1e+300       -1e+300       -1e+300       -1e+300       -1e+300       -1e+300       -1e+300       -1e+300       -1e+300       -1e+300       -1e+300
       11.276       2.56097       2.56455       2.42102       2.64657       2.52923       1.58957       1.53212       1.70236       1.82408        1.6677       1.60602       1.34888       1.41947       0.23024      0.197531     0.0107985    -0.0213344      -0.57121     -0.593511     -0.333392     -0.558389     -0.841094      -1.07225      -1.33983      -1.43838      -1.58094      -1.64105      -1.90576      -2.14157      -2.14157      -2.36128      -2.60099      -2.44978      -2.81892      -2.80767      -2.69659      -2.60568      -2.47311       -1e+300       -1e+300       -1e+300       -1e+300       -1e+300       -1e+300       -1e+300       -1e+300       -1e+300       -1e+300       -1e+300       -1e+300       -1e+300       -1e+300       -1e+300       -1e+300       -1e+300
       11.278       5.77878       5.86385       5.65243       5.66439       5.71232        5.2624       4.89376        4.8097       4.94589       4.92817       4.68623       4.51205       4.43964       3.39922       3.16486       3.05839       2.85821        2.6847       2.52976       2.82717       2.77498       2.39455       2.12719       1.84237       1.78838        1.6727       1.66062       1.42567       1.18519       1.18519      0.948896      0.692172      0.825435      0.493355      0.501912      0.615442      0.731245      0.854447       -1e+300       -1e+300       -1e+300       -1e+300       -1e+300       -1e+300       -1e+300       -1e+300       -1e+300       -1e+300       -1e+300       -1e+300       -1e+300       -1e+300       -1e+300       -1e+300       -1e+300
        11.28       10.7399       10.7444       10.5146       10.6296       10.7002        10.346       9.63334       9.38164       9.46799       9.66729       9.40943       9.20952        8.6702       8.13596       7.80153       7.63933       7.49906       7.68736       7.62241        7.6236       7.68191       7.20969       6.97441       6.77855       6.76986       6.65587         6.673       6.49313        6.2332        6.2332       5.95237       5.72782       5.76887       5.56054       5.53598       5.64037       5.77043       5.88234       -1e+300       -1e+300       -1e+300       -1e+300       -1e+300       -1e+300       -1e+300       -1e+300       -1e+300       -1e+300       -1e+300       -1e+300       -1e+300       -1e+300       -1e+300       -1e+300       -1e+300
       11.282       2.91907       2.73778       2.54689       2.74431       2.75912       1.85528       1.36962       1.18823       1.05479       1.52372       1.37432      0.859625      0.290658    -0.0863399     -0.469828     -0.716909      -0.70247     -0.350312     -0.318582     -0.361916     -0.361394     -0.888226      -1.06739      -1.16473      -1.13243      -1.28109      -1.27469      -1.43012      -1.69092      -1.69092       -2.0358      -2.28052      -2.29317      -2.44615      -2.54015      -2.44926      -2.32958      -2.21357       -1e+300       -1e+300       -1e+300       -1e+300       -1e+300       -1e+300       -1e+300       -1e+300       -1e+300       -1e+300       -1e+300       -1e+300       -1e+300       -1e+300       -1e+300       -1e+300       -1e+300
       11.284     -0.153339     -0.415539     -0.555273     -0.409761       -0.4721      -1.51069      -1.74624      -1.72807       -1.7985      -1.51713      -1.65889      -2.12354      -3.06024        -3.344      -3.66667      -3.71059      -3.61426      -3.35784      -2.95471      -3.33239      -3.45542      -4.00516      -4.15244      -4.13595      -4.09441      -4.25433      -4.27856      -4.40576      -4.69097      -4.69097       -5.1196      -5.37471       -5.4205      -5.54765      -5.66501      -5.62734      -5.52974      -5.39551       -1e+300       -1e+300       -1e+300       -1e+300       -1e+300       -1e+300       -1e+300       -1e+300       -1e+300       -1e+300       -1e+300       -1e+300       -1e+300       -1e+300       -1e+300       -1e+300       -1e+300
       11.286       4.85561       4.66309       4.45869       4.52999       4.37758       3.63338       3.64112       3.69776       3.58419        3.6688       3.63143       3.48844       2.47284       2.02505       2.07209       2.10146       2.22756       2.31701       2.46272       2.05026       1.90372       1.42254       1.26125       1.31906       1.35456       1.22924       1.18932       1.12257      0.816119      0.816119      0.379968      0.165195      0.134177     0.0302302    -0.0687899    -0.0400889     0.0579785      0.220481       -1e+300       -1e+300       -1e+300       -1e+300       -1e+300       -1e+300       -1e+300       -1e+300       -1e+300       -1e+300       -1e+300       -1e+300       -1e+300       -1e+300       -1e+300       -1e+300       -1e+300
       11.288       3.38656       3.19571       2.99484       3.06762       2.90973       2.59268        2.5973       2.56766       2.36149       2.36096       2.43693       2.11558       1.36134       1.21151       1.14041       1.30725       1.43251       1.15088       1.20772      0.840607      0.753661      0.400597       0.19739      0.132619     0.0989637  -0.000822147    -0.0363206     -0.112756     -0.404269     -0.404269     -0.892547       -1.0935      -1.15232      -1.25099      -1.35202      -1.35182      -1.26025      -1.06057       -1e+300       -1e+300       -1e+300       -1e+300       -1e+300       -1e+300       -1e+300       -1e+300       -1e+300       -1e+300       -1e+300       -1e+300       -1e+300       -1e+300       -1e+300       -1e+300       -1e+300
        11.29       6.73118       6.55185       6.45455       6.40623       6.30893       6.01053       5.99685       5.92358        5.7589       5.75184       5.89002        5.4239       5.02863       5.25764       4.75743       5.01301       5.16993       4.77093       4.67632       4.33629        4.2803       4.00139       3.77293       3.61862       3.53291       3.45026       3.40703       3.32926       3.07212       3.07212       2.52944       2.36066       2.25709       2.15036       2.06348       2.03259       2.11843       2.32398       -1e+300       -1e+300       -1e+300       -1e+300       -1e+300       -1e+300       -1e+300       -1e+300       -1e+300       -1e+300       -1e+300       -1e+300       -1e+300       -1e+300       -1e+300       -1e+300       -1e+300
       11.292       8.67475       8.58104       8.33936       8.09923       8.01328       7.68188       7.99366       7.88183       7.60096       7.46936       7.56148       7.16271       7.40841       7.17243       6.99582       7.17479       7.20371       6.80544       6.70083       6.31869       6.23489       5.95345       5.72711        5.6301       5.52816       5.45514       5.41667       5.40344       5.15273       5.15273        4.6079       4.45976       4.33363       4.21064       4.12011       4.08873        4.1727       4.38858       -1e+300       -1e+300       -1e+300       -1e+300       -1e+300       -1e+300       -1e+300       -1e+300       -1e+300       -1e+300       -1e+300       -1e+300       -1e+300       -1e+300       -1e+300       -1e+300       -1e+300
       11.294       6.70356        6.6997       6.14869       5.71317        5.5576       5.44392       5.91227       5.83299       5.43674       5.48435       5.59214       5.39557       5.36884       5.39026       5.35827       5.18288       5.08193       4.76534       4.55506       4.29289       4.17784       3.95912       3.74698       3.75819        3.6213       3.53238       3.47512       3.45051       3.30169       3.30169       2.73537       2.60651       2.42566       2.26741       2.23993       2.14858       2.24293       2.46372       -1e+300       -1e+300       -1e+300       -1e+300       -1e+300       -1e+300       -1e+300       -1e+300       -1e+300       -1e+300       -1e+300       -1e+300       -1e+300       -1e+300       -1e+300       -1e+300       -1e+300
       11.296       1.93422       1.94356       1.37562      0.782454      0.661451      0.795319        1.1909       1.15536      0.629044      0.847137       1.01759      0.961774      0.752898      0.789614      0.269608     0.0451757    -0.0996011     -0.138181     -0.267351     -0.474446     -0.582716     -0.732025     -0.940782     -0.889062     -0.991904      -1.11204      -1.15393      -1.28637      -1.38793      -1.38793       -1.8246      -1.97415      -2.20698      -2.41025      -2.44469       -2.4764      -2.39187      -2.19829       -1e+300       -1e+300       -1e+300       -1e+300       -1e+300       -1e+300       -1e+300       -1e+300       -1e+300       -1e+300       -1e+300       -1e+300       -1e+300       -1e+300       -1e+300       -1e+300       -1e+300
       11.298     -0.124077     -0.101039     -0.401042     -0.880839      -1.05054     -0.721296     -0.744264     -0.725388       -1.4072      -1.27909     -0.977464      -1.02092      -1.09738       -1.5941       -2.3415      -2.70641      -3.12517      -2.73702      -2.54893      -2.59506      -2.62465      -2.72297      -2.91385       -2.9924      -3.00491      -3.15325      -3.18803      -3.40847      -3.49902      -3.49902      -3.83569      -3.98949      -4.27862      -4.50895      -4.51865      -4.57687      -4.45496      -4.26514       -1e+300       -1e+300       -1e+300       -1e+300       -1e+300       -1e+300       -1e+300       -1e+300       -1e+300       -1e+300       -1e+300       -1e+300       -1e+300       -1e+300       -1e+300       -1e+300       -1e+300
         11.3    -0.0693581  -3.59885e-05     -0.094746     -0.127466     -0.153803     -0.441338     -0.784706     -0.727075      -1.07013     -0.962224     -0.923969      -1.00661      -1.18656      -1.90852      -2.43105       -3.0241       -3.5897      -3.39302      -2.48135       -2.5658      -2.58208      -2.68946      -2.86257      -2.92427      -2.96631      -3.15182      -3.19459      -3.48456      -3.59212      -3.59212      -3.83759      -3.99111      -4.32229       -4.5829      -4.58324      -4.61251      -4.50394      -4.36525       -1e+300       -1e+300       -1e+300       -1e+300       -1e+300       -1e+300       -1e+300       -1e+300       -1e+300       -1e+300       -1e+300       -1e+300       -1e+300       -1e+300       -1e+300       -1e+300       -1e+300
       11.302        2.0827       2.13414       1.99098       2.22137       2.20848       1.62528       1.34944        1.4123       1.38676         1.341       1.14201       1.10401      0.851216     0.0924016     -0.176807     -0.457697     -0.905642      -1.00663      -0.58087     -0.476416     -0.527001     -0.567852     -0.728637     -0.822333     -0.881213      -1.09445      -1.13512      -1.36061      -1.51023      -1.51023      -1.76312      -1.90186      -2.25535      -2.53551      -2.51729       -2.5373      -2.42165      -2.28505       -1e+300       -1e+300       -1e+300       -1e+300       -1e+300       -1e+300       -1e+300       -1e+300       -1e+300       -1e+300       -1e+300       -1e+300       -1e+300       -1e+300       -1e+300       -1e+300       -1e+300
       11.304       2.65419       2.60104       2.38714       2.55366       2.46099       2.05453       1.95288       1.92826       1.86354       1.73282       1.63574       1.57527       1.45585      0.863151      0.816273       1.01198       1.01012      0.487313      0.318892      0.115972  -1.02714e-05   -0.00905408     -0.142568     -0.294389     -0.346513     -0.607981     -0.661839     -0.831481     -0.932012     -0.932012      -1.22266      -1.33499      -1.68947       -1.9721      -1.92393      -1.97319      -1.81141      -1.69594       -1e+300       -1e+300       -1e+300       -1e+300       -1e+300       -1e+300       -1e+300       -1e+300       -1e+300       -1e+300       -1e+300       -1e+300       -1e+300       -1e+300       -1e+300       -1e+300       -1e+300
       11.306      -1.94198      -2.12043      -2.30159      -2.19645      -2.34859      -2.65979      -2.74231      -2.80822      -2.95108       -3.0954      -3.03267      -3.16615      -3.32058      -3.60081      -3.34831      -2.88406      -3.06866      -3.68946      -4.37699      -4.48622      -4.47349      -4.64504      -4.74428      -4.99581      -5.03449       -5.3712      -5.44926      -5.56365      -5.68664      -5.68664      -5.97409      -6.08556      -6.44356      -6.73984      -6.74177      -6.74006      -6.62057      -6.52129       -1e+300       -1e+300       -1e+300       -1e+300       -1e+300       -1e+300       -1e+300       -1e+300       -1e+300       -1e+300       -1e+300       -1e+300       -1e+300       -1e+300       -1e+300       -1e+300       -1e+300
       11.308      -2.05497      -2.25109      -2.56855      -2.23642      -2.54915      -2.93182      -3.03516      -3.10025      -3.24621      -3.31924      -3.19584      -3.23714      -3.59922      -3.90871      -3.50256       -3.3433       -3.4635      -3.89736      -4.45967      -4.47373      -4.25861      -4.63096      -4.72102      -5.01987      -5.05557      -5.41014      -5.50099      -5.59264      -5.75626      -5.75626      -5.98529      -6.08243      -6.41285      -6.69606      -6.73907      -6.70302      -6.59175      -6.50684       -1e+300       -1e+300       -1e+300       -1e+300       -1e+300       -1e+300       -1e+300       -1e+300       -1e+300       -1e+300       -1e+300       -1e+300       -1e+300       -1e+300       -1e+300       -1e+300       -1e+300
        11.31        2.4123       2.02345       1.73164       2.28464       2.03929       1.44891       1.12325       1.03222       0.98908       1.20334       1.47948       1.37887       1.04916      0.142916      0.720401       0.60827      0.456208      0.140739      0.586694      0.191347      0.421662    -0.0172182     -0.149706     -0.401238     -0.442579     -0.764756     -0.859748     -0.955233      -1.17551      -1.17551        -1.298      -1.36443      -1.63515      -1.87108      -1.88668      -1.83861      -1.72767      -1.65359       -1e+300       -1e+300       -1e+300       -1e+300       -1e+300       -1e+300       -1e+300       -1e+300       -1e+300       -1e+300       -1e+300       -1e+300       -1e+300       -1e+300       -1e+300       -1e+300       -1e+300
       11.312       1.57003        1.0188       1.08363       1.44655       1.29818      0.704757      0.387547      0.323162      0.385386      0.817561      0.945543      0.488184        0.6071       0.25449      0.266541    -0.0807362     -0.380661     0.0320719   -0.00217721     -0.533183     -0.529398     -0.920218      -1.10594      -1.31275      -1.41387      -1.71631      -1.83115      -1.97098      -2.21581      -2.21581       -2.3037      -2.36541       -2.5931      -2.79984      -2.86577      -2.81002      -2.72948      -2.66989       -1e+300       -1e+300       -1e+300       -1e+300       -1e+300       -1e+300       -1e+300       -1e+300       -1e+300       -1e+300       -1e+300       -1e+300       -1e+300       -1e+300       -1e+300       -1e+300       -1e+300
       11.314      -3.18892      -3.36921      -2.79199      -3.25209      -3.32012      -3.71789      -3.80651      -3.82182      -3.72617      -3.66402      -3.96037      -4.03175       -3.3679      -3.37521      -3.60172       -4.0192      -4.12277      -4.16328      -4.47175      -5.08534      -5.28944      -5.63032      -5.81334      -6.04263      -6.20382      -6.49678      -6.62437      -6.78085      -6.97472      -6.97472      -7.12605      -7.19576      -7.40191      -7.59664      -7.71313      -7.67031      -7.62417      -7.59587       -1e+300       -1e+300       -1e+300       -1e+300       -1e+300       -1e+300       -1e+300       -1e+300       -1e+300       -1e+300       -1e+300       -1e+300       -1e+300       -1e+300       -1e+300       -1e+300       -1e+300
       11.316     0.0985026      0.169905      0.586744     0.0736803      0.174391    -0.0374101     -0.203978      -0.27546     -0.382719     -0.484278     -0.524114    -0.0160482      0.301843      0.124668       0.12478    -0.0107717    -0.0947284     -0.653784      -1.15338      -1.77663      -1.89809      -2.26777      -2.40782      -2.64636      -2.81939      -3.11226      -3.22815        -3.307      -3.43657      -3.43657      -3.68958       -3.7442      -3.90204      -4.06107       -4.1741      -4.12052       -4.0846      -4.06925       -1e+300       -1e+300       -1e+300       -1e+300       -1e+300       -1e+300       -1e+300       -1e+300       -1e+300       -1e+300       -1e+300       -1e+300       -1e+300       -1e+300       -1e+300       -1e+300       -1e+300
       11.318     -0.015653    -0.0416258     -0.424684     -0.119875     0.0486733     -0.257314     -0.473769     -0.600647     -0.909034     -0.828371     -0.775364     -0.701078     -0.643986     -0.238807     -0.157331     -0.155752     -0.266348     -0.945524      -1.63615      -2.08318      -2.21704        -2.584       -2.7146      -2.96658        -3.116      -3.43052      -3.54865      -3.54487      -3.61751      -3.61751      -3.94136      -3.98284      -4.09988      -4.22694      -4.32853      -4.27662      -4.25789      -4.26179       -1e+300       -1e+300       -1e+300       -1e+300       -1e+300       -1e+300       -1e+300       -1e+300       -1e+300       -1e+300       -1e+300       -1e+300       -1e+300       -1e+300       -1e+300       -1e+300       -1e+300
        11.32      -3.87084      -4.43787      -4.11906        -3.766      -3.67704       -4.0157      -4.23731      -4.35276      -4.60329      -4.56194      -4.66132      -4.63697      -4.42122      -4.03441      -3.86958      -3.96151      -4.25895      -4.92465      -5.49752      -5.77764      -5.99195      -6.31982       -6.4654      -6.71797      -6.82537      -7.15211      -7.29084      -7.27722       -7.2898       -7.2898       -7.7268      -7.77899      -7.88473      -8.00694       -8.1178      -8.08385      -8.08128      -8.10313       -1e+300       -1e+300       -1e+300       -1e+300       -1e+300       -1e+300       -1e+300       -1e+300       -1e+300       -1e+300       -1e+300       -1e+300       -1e+300       -1e+300       -1e+300       -1e+300       -1e+300
       11.322      0.684125       0.29002      0.985774       1.07942       1.10451       0.63625       0.47519      0.392809      0.349501      0.302732      0.201923      0.486425      0.829373      0.708382      0.636618       0.49134      0.200947     -0.363836     -0.641813     -0.976201      -1.19667      -1.45714      -1.59278      -1.81389      -1.86191      -2.18898      -2.33215      -2.29705       -2.2987       -2.2987      -2.74485       -2.7968      -2.84321      -2.98419      -3.04638      -3.00015      -2.99426       -3.0268       -1e+300       -1e+300       -1e+300       -1e+300       -1e+300       -1e+300       -1e+300       -1e+300       -1e+300       -1e+300       -1e+300       -1e+300       -1e+300       -1e+300       -1e+300       -1e+300       -1e+300
       11.324       4.43341       4.39435          4.69       4.60923       4.53515       3.99809       3.98365       3.94748       3.96409       3.91884       3.98782        4.3366       4.19193       3.72227       3.74443        3.6199       3.46386       3.09867       2.74823       2.45694       2.27552       2.06133       1.94224       1.73451       1.69638       1.40302        1.2479       1.25343        1.1813        1.1813      0.844154      0.799811      0.758854      0.677901      0.624472       0.65851      0.663858      0.634482       -1e+300       -1e+300       -1e+300       -1e+300       -1e+300       -1e+300       -1e+300       -1e+300       -1e+300       -1e+300       -1e+300       -1e+300       -1e+300       -1e+300       -1e+300       -1e+300       -1e+300
       11.326       5.69496        5.6152       5.67709        5.5032       5.31529       4.90315       4.88462       4.87957       4.94033       4.79794       4.90743       4.83975       4.55232       4.40004       4.26465       4.21739       4.08799       3.86672       3.42863       3.13608       3.00844       2.80051       2.69043        2.4979       2.44986       2.17495       2.00865       1.97726       1.82812       1.82812       1.59468       1.53976       1.49575       1.41096       1.35143       1.38321       1.38434       1.34366       -1e+300       -1e+300       -1e+300       -1e+300       -1e+300       -1e+300       -1e+300       -1e+300       -1e+300       -1e+300       -1e+300       -1e+300       -1e+300       -1e+300       -1e+300       -1e+300       -1e+300
       11.328       3.89781       3.67066       3.56581       3.40323       3.12539       2.84517       2.72877       2.74288       2.82875       2.59603       2.47365       1.92002        1.8484       1.86356        1.6795       1.80571       1.78406       1.60359       1.25126      0.846512      0.789107      0.570839       0.46741       0.28023      0.210919    -0.0544381     -0.250108     -0.316144     -0.503311     -0.503311     -0.640686     -0.707219     -0.763597     -0.862518     -0.961889     -0.931401     -0.940438     -0.981466       -1e+300       -1e+300       -1e+300       -1e+300       -1e+300       -1e+300       -1e+300       -1e+300       -1e+300       -1e+300       -1e+300       -1e+300       -1e+300       -1e+300       -1e+300       -1e+300       -1e+300
        11.33      0.402339      0.338946      0.033427     -0.256104     -0.442928     -0.618041     -0.673329     -0.690807     -0.785465     -0.961879      -1.25186      -1.90922      -2.33857      -1.96628      -1.93251      -1.82886       -1.8525      -1.91732      -2.29161      -2.75079      -2.79791      -3.00445      -3.10491      -3.32084      -3.42523      -3.65749      -3.91431      -3.97275      -4.21547      -4.21547      -4.25689      -4.33742      -4.41049      -4.51843      -4.66048      -4.63364      -4.65412      -4.68983       -1e+300       -1e+300       -1e+300       -1e+300       -1e+300       -1e+300       -1e+300       -1e+300       -1e+300       -1e+300       -1e+300       -1e+300       -1e+300       -1e+300       -1e+300       -1e+300       -1e+300