# Probe 0 (-0.35 0 0.005)
# Probe 1 (-0.35 0 0.0155)
# Probe 2 (-0.35 0 0.02653)
# Probe 3 (-0.35 0 0.0381)
# Probe 4 (-0.35 0 0.05026)
# Probe 5 (-0.35 0 0.06302)
# Probe 6 (-0.35 0 0.07642)
# Probe 7 (-0.35 0 0.08)
# Probe 8 (-0.35 0 0.09049)
# Probe 9 (-0.35 0 0.10527)
# Probe 10 (-0.35 0 0.12078)
# Probe 11 (-0.35 0 0.13707)
# Probe 12 (-0.35 0 0.15417)
# Probe 13 (-0.35 0 0.17213)
# Probe 14 (-0.35 0 0.19099)
# Probe 15 (-0.35 0 0.2)
# Probe 16 (-0.35 0 0.21079)
# Probe 17 (-0.35 0 0.23157)
# Probe 18 (-0.35 0 0.2534)
# Probe 19 (-0.35 0 0.27632)
# Probe 20 (-0.35 0 0.30039)
# Probe 21 (-0.35 0 0.32566)
# Probe 22 (-0.35 0 0.35219)
# Probe 23 (-0.35 0 0.38005)
# Probe 24 (-0.35 0 0.4093)
# Probe 25 (-0.35 0 0.44002)
# Probe 26 (-0.35 0 0.47227)
# Probe 27 (-0.35 0 0.50613)
# Probe 28 (-0.35 0 0.54169)
# Probe 29 (-0.35 0 0.57903)
# Probe 30 (-0.35 0 0.61823)
# Probe 31 (-0.35 0 0.65939)
# Probe 32 (-0.35 0 0.70261)
# Probe 33 (-0.35 0 0.74799)
# Probe 34 (-0.35 0 0.79564)
# Probe 35 (-0.35 0 0.84567)
# Probe 36 (-0.35 0 0.8982)
# Probe 37 (-0.35 0 0.95336)
# Probe 38 (-0.35 0 1.01128)
# Probe 39 (-0.35 0 1.0721)
# Probe 40 (-0.35 0 1.13595)
# Probe 41 (-0.35 0 1.203)
# Probe 42 (-0.35 0 1.2734)
# Probe 43 (-0.35 0 1.34732)
# Probe 44 (-0.35 0 1.42493)
# Probe 45 (-0.35 0 1.50643)
# Probe 46 (-0.35 0 1.592)
# Probe 47 (-0.35 0 1.68185)
# Probe 48 (-0.35 0 1.77619)
# Probe 49 (-0.35 0 1.87525)
# Probe 50 (-0.35 0 1.97927)
# Probe 51 (-0.35 0 2.08848)
# Probe 52 (-0.35 0 2.20315)
# Probe 53 (-0.35 0 2.32356)
# Probe 54 (-0.35 0 2.44999)
#       Probe             0             1             2             3             4             5             6             7             8             9            10            11            12            13            14            15            16            17            18            19            20            21            22            23            24            25            26            27            28            29            30            31            32            33            34            35            36            37            38            39            40            41            42            43            44            45            46            47            48            49            50            51            52            53            54
#        Time
       11.262             (4.73514 -0.848467 -0.094512)             (5.29573 -0.561573 0.23961)             (5.33514 -0.0383599 0.513607)             (5.31714 0.911705 1.11152)             (5.23142 0.895425 1.38397)             (4.78688 0.658417 1.11447)             (5.06712 0.549453 0.858387)             (5.07497 0.527052 0.896123)             (5.67588 -0.560176 1.29492)             (5.37664 -0.687982 0.14508)             (5.9587 -0.47468 0.34005)             (6.36363 0.501334 0.537617)             (7.59038 1.03859 1.20176)             (7.98701 0.381816 0.467332)             (7.05366 0.250018 -0.120684)             (7.17542 0.14026 -0.0397169)             (7.79718 0.116359 -0.0128129)             (8.13911 -0.492614 -0.250978)             (8.67614 -0.19615 0.270257)             (8.58051 -0.191418 0.0848344)             (8.7537 -0.339771 0.0788087)             (8.90339 -0.168172 0.106912)             (9.08784 -0.133873 0.108415)             (8.92948 -0.00818445 -0.0448103)             (8.68247 0.245508 0.106386)             (8.9388 0.0859815 -0.226674)             (8.72612 0.276337 -0.456485)             (8.32186 0.396042 -0.675783)             (8.06908 0.63511 -0.466102)             (8.06908 0.63511 -0.466102)             (8.03512 0.67327 -0.850647)             (9.00385 0.394333 -0.980162)             (9.97406 0.0690145 -0.704153)             (9.41456 0.0717461 -0.646006)             (8.58674 0.511553 -0.462797)             (8.01338 0.517795 -0.350139)             (7.60718 0.670762 -0.397531)             (7.45271 0.528725 0.0235951)             (-1e+300 -1e+300 -1e+300)             (-1e+300 -1e+300 -1e+300)             (-1e+300 -1e+300 -1e+300)             (-1e+300 -1e+300 -1e+300)             (-1e+300 -1e+300 -1e+300)             (-1e+300 -1e+300 -1e+300)             (-1e+300 -1e+300 -1e+300)             (-1e+300 -1e+300 -1e+300)             (-1e+300 -1e+300 -1e+300)             (-1e+300 -1e+300 -1e+300)             (-1e+300 -1e+300 -1e+300)             (-1e+300 -1e+300 -1e+300)             (-1e+300 -1e+300 -1e+300)             (-1e+300 -1e+300 -1e+300)             (-1e+300 -1e+300 -1e+300)             (-1e+300 -1e+300 -1e+300)             (-1e+300 -1e+300 -1e+300)
       11.264             (4.691 -0.872281 -0.0177361)             (5.38484 -0.480666 0.205487)             (5.32689 -0.0470606 0.415151)             (5.17099 1.63597 1.08558)             (5.05892 1.44927 1.17242)             (4.77635 0.51045 0.907876)             (5.13257 0.0210341 0.962502)             (5.19257 -0.036633 0.962385)             (5.32197 -0.587487 1.16029)             (5.06711 -0.293657 0.311178)             (5.92771 -0.235461 0.605626)             (6.39532 0.528334 0.997832)             (7.26099 1.10065 0.85174)             (7.49255 0.304401 -0.510882)             (7.38132 0.311613 -0.301596)             (7.66631 0.1273 -0.0950767)             (7.42584 0.176686 -0.57509)             (7.60909 -0.463783 -0.234408)             (8.4933 0.0945945 0.229166)             (8.50006 -0.000233208 0.210062)             (8.72179 -0.204646 0.202236)             (8.86669 -0.196905 0.117675)             (9.02152 -0.252267 0.157652)             (8.80853 0.0955197 -0.150217)             (8.64469 0.253526 0.00514104)             (8.79502 0.0352605 -0.22836)             (8.59584 0.261409 -0.467502)             (8.29265 0.435493 -0.711269)             (8.00537 0.680759 -0.502104)             (8.00537 0.680759 -0.502104)             (8.03461 0.680979 -0.811255)             (9.05468 0.372289 -0.905438)             (9.92979 -0.0304347 -0.677442)             (9.28046 -0.0497522 -0.636234)             (8.59077 0.525895 -0.43237)             (8.04629 0.458376 -0.335119)             (7.65937 0.601299 -0.437168)             (7.45463 0.462991 -0.0214783)             (-1e+300 -1e+300 -1e+300)             (-1e+300 -1e+300 -1e+300)             (-1e+300 -1e+300 -1e+300)             (-1e+300 -1e+300 -1e+300)             (-1e+300 -1e+300 -1e+300)             (-1e+300 -1e+300 -1e+300)             (-1e+300 -1e+300 -1e+300)             (-1e+300 -1e+300 -1e+300)             (-1e+300 -1e+300 -1e+300)             (-1e+300 -1e+300 -1e+300)             (-1e+300 -1e+300 -1e+300)             (-1e+300 -1e+300 -1e+300)             (-1e+300 -1e+300 -1e+300)             (-1e+300 -1e+300 -1e+300)             (-1e+300 -1e+300 -1e+300)             (-1e+300 -1e+300 -1e+300)             (-1e+300 -1e+300 -1e+300)
       11.266             (4.77378 -0.690733 0.049917)             (5.4157 -0.419573 0.178525)             (5.58488 -0.114147 0.252372)             (5.1134 1.4823 0.784991)             (5.11979 1.20223 0.699109)             (5.44933 0.165374 0.729108)             (5.3339 -0.23645 0.954939)             (5.2392 -0.47037 1.01231)             (5.25546 -0.633436 1.11283)             (5.25136 -0.109732 0.756199)             (5.85453 -0.075823 1.1002)             (6.28236 0.189655 1.31076)             (6.68969 0.726281 1.05437)             (7.44382 0.134199 -0.188397)             (7.74408 0.0341471 -0.0311952)             (7.2106 0.264011 -0.162812)             (6.92321 -0.283993 -0.532467)             (7.10886 -0.978603 -0.121538)             (8.5239 0.387295 0.0721784)             (8.48266 0.22924 0.207306)             (8.68253 -0.039759 0.170706)             (8.86097 -0.284662 0.0894652)             (8.89577 -0.283888 0.143198)             (8.66113 0.261832 -0.247841)             (8.63249 0.280969 -0.124642)             (8.69197 0.0333284 -0.280515)             (8.50914 0.271128 -0.475291)             (8.26449 0.437896 -0.710632)             (7.94437 0.713547 -0.512798)             (7.94437 0.713547 -0.512798)             (8.03931 0.68886 -0.741983)             (9.05121 0.364719 -0.821355)             (9.81659 -0.110377 -0.648874)             (9.14238 -0.15813 -0.613376)             (8.58174 0.550354 -0.387022)             (8.07278 0.392147 -0.313429)             (7.70825 0.49614 -0.460037)             (7.4641 0.379102 -0.0750308)             (-1e+300 -1e+300 -1e+300)             (-1e+300 -1e+300 -1e+300)             (-1e+300 -1e+300 -1e+300)             (-1e+300 -1e+300 -1e+300)             (-1e+300 -1e+300 -1e+300)             (-1e+300 -1e+300 -1e+300)             (-1e+300 -1e+300 -1e+300)             (-1e+300 -1e+300 -1e+300)             (-1e+300 -1e+300 -1e+300)             (-1e+300 -1e+300 -1e+300)             (-1e+300 -1e+300 -1e+300)             (-1e+300 -1e+300 -1e+300)             (-1e+300 -1e+300 -1e+300)             (-1e+300 -1e+300 -1e+300)             (-1e+300 -1e+300 -1e+300)             (-1e+300 -1e+300 -1e+300)             (-1e+300 -1e+300 -1e+300)
       11.268             (4.90883 -0.364724 0.027341)             (5.29238 -0.201086 0.111744)             (5.61934 -0.187231 -0.185189)             (5.02687 0.889065 0.215914)             (5.4061 0.656871 0.449957)             (5.78745 -0.0886207 0.391779)             (5.46057 -0.401857 0.630257)             (5.34572 -0.456108 0.799132)             (5.48946 -0.370037 1.11692)             (5.5466 -0.236809 1.27421)             (5.9517 -0.163891 1.45789)             (6.21649 0.0246002 1.47159)             (6.15074 0.489325 1.39977)             (7.3619 -0.258925 0.25008)             (7.73436 0.108967 0.130032)             (7.29576 0.0629748 0.0344744)             (7.08011 -0.586557 -0.208194)             (7.36016 -1.30315 0.343066)             (8.5373 0.361555 0.0678981)             (8.59208 0.214412 0.101844)             (8.73903 0.012794 0.0268721)             (8.86733 -0.345801 -0.00630959)             (8.73008 -0.164149 0.024573)             (8.52925 0.433938 -0.340943)             (8.66371 0.308044 -0.263206)             (8.65871 0.0852101 -0.354733)             (8.4813 0.300672 -0.479167)             (8.24236 0.42113 -0.693101)             (7.89533 0.736196 -0.501241)             (7.89533 0.736196 -0.501241)             (8.05011 0.700658 -0.65446)             (9.00023 0.372774 -0.741464)             (9.66482 -0.166799 -0.61931)             (9.02394 -0.247152 -0.587629)             (8.56889 0.57175 -0.339727)             (8.09947 0.314776 -0.297726)             (7.76191 0.357151 -0.472622)             (7.49152 0.27947 -0.130715)             (-1e+300 -1e+300 -1e+300)             (-1e+300 -1e+300 -1e+300)             (-1e+300 -1e+300 -1e+300)             (-1e+300 -1e+300 -1e+300)             (-1e+300 -1e+300 -1e+300)             (-1e+300 -1e+300 -1e+300)             (-1e+300 -1e+300 -1e+300)             (-1e+300 -1e+300 -1e+300)             (-1e+300 -1e+300 -1e+300)             (-1e+300 -1e+300 -1e+300)             (-1e+300 -1e+300 -1e+300)             (-1e+300 -1e+300 -1e+300)             (-1e+300 -1e+300 -1e+300)             (-1e+300 -1e+300 -1e+300)             (-1e+300 -1e+300 -1e+300)             (-1e+300 -1e+300 -1e+300)             (-1e+300 -1e+300 -1e+300)
        11.27             (4.83068 -0.0705559 -0.0812988)             (5.00018 -0.0619954 -0.00247372)             (5.31186 -0.347481 -0.335664)             (5.15333 0.490079 -0.168714)             (5.49029 0.353731 0.22554)             (5.37287 -0.233392 0.205237)             (5.40476 -0.422082 0.528215)             (5.54763 -0.344809 0.712722)             (5.74128 -0.302803 1.01278)             (5.8352 -0.447435 1.3624)             (6.0355 -0.408595 1.38333)             (6.14066 -0.126206 1.24709)             (6.26432 -0.0286781 1.23316)             (6.90941 0.00247262 1.33886)             (7.99472 0.160226 0.442181)             (7.66059 -0.0242903 -0.380724)             (7.79903 -0.242054 -0.245037)             (8.26764 -0.453504 0.51962)             (8.28673 0.0807187 0.259254)             (8.70559 0.00321434 -0.017096)             (8.84254 -0.00354945 -0.186439)             (8.84526 -0.300334 -0.142916)             (8.54652 0.0714033 -0.178356)             (8.47226 0.545273 -0.434941)             (8.76475 0.307961 -0.382336)             (8.70595 0.169213 -0.414685)             (8.50205 0.34044 -0.473116)             (8.22749 0.410928 -0.672362)             (7.8639 0.753055 -0.471248)             (7.8639 0.753055 -0.471248)             (8.06579 0.719091 -0.559602)             (8.91386 0.395269 -0.673443)             (9.50236 -0.197953 -0.588378)             (8.93881 -0.310799 -0.569182)             (8.55704 0.579426 -0.302387)             (8.12924 0.225675 -0.297961)             (7.82662 0.194017 -0.481733)             (7.54584 0.171558 -0.182828)             (-1e+300 -1e+300 -1e+300)             (-1e+300 -1e+300 -1e+300)             (-1e+300 -1e+300 -1e+300)             (-1e+300 -1e+300 -1e+300)             (-1e+300 -1e+300 -1e+300)             (-1e+300 -1e+300 -1e+300)             (-1e+300 -1e+300 -1e+300)             (-1e+300 -1e+300 -1e+300)             (-1e+300 -1e+300 -1e+300)             (-1e+300 -1e+300 -1e+300)             (-1e+300 -1e+300 -1e+300)             (-1e+300 -1e+300 -1e+300)             (-1e+300 -1e+300 -1e+300)             (-1e+300 -1e+300 -1e+300)             (-1e+300 -1e+300 -1e+300)             (-1e+300 -1e+300 -1e+300)             (-1e+300 -1e+300 -1e+300)
       11.272             (4.51103 0.00082407 -0.117179)             (4.64283 -0.371005 0.00327591)             (5.12971 -0.544154 0.0320783)             (5.12059 -0.224189 -0.0386872)             (5.03583 -0.040106 -0.0639644)             (5.13634 -0.334896 0.169938)             (5.73012 -0.275427 0.436353)             (5.91382 -0.210999 0.612932)             (6.02123 -0.310531 0.865577)             (5.98831 -0.506521 1.09214)             (6.125 -0.467397 1.05961)             (6.14168 -0.247888 0.844683)             (6.63845 -0.0744398 1.03099)             (6.80967 0.72418 1.63051)             (6.9569 0.191332 0.818363)             (7.95657 0.397206 -0.272025)             (7.8054 0.32643 -0.495954)             (8.28641 0.3832 -0.82578)             (8.28389 -0.15239 0.101495)             (8.70049 -0.156542 -0.146822)             (8.88088 -0.0740396 -0.426699)             (8.75357 -0.0844426 -0.288761)             (8.38944 0.315889 -0.418837)             (8.53735 0.554897 -0.517256)             (8.94692 0.268632 -0.447131)             (8.82504 0.247595 -0.435098)             (8.54857 0.380055 -0.452256)             (8.21855 0.424726 -0.653836)             (7.85168 0.766681 -0.428289)             (7.85168 0.766681 -0.428289)             (8.08392 0.742832 -0.467921)             (8.80709 0.426723 -0.620156)             (9.34936 -0.206108 -0.556048)             (8.89092 -0.34625 -0.567085)             (8.54674 0.562925 -0.284252)             (8.16091 0.12287 -0.319858)             (7.9041 0.0150951 -0.491669)             (7.6284 0.0616922 -0.22725)             (-1e+300 -1e+300 -1e+300)             (-1e+300 -1e+300 -1e+300)             (-1e+300 -1e+300 -1e+300)             (-1e+300 -1e+300 -1e+300)             (-1e+300 -1e+300 -1e+300)             (-1e+300 -1e+300 -1e+300)             (-1e+300 -1e+300 -1e+300)             (-1e+300 -1e+300 -1e+300)             (-1e+300 -1e+300 -1e+300)             (-1e+300 -1e+300 -1e+300)             (-1e+300 -1e+300 -1e+300)             (-1e+300 -1e+300 -1e+300)             (-1e+300 -1e+300 -1e+300)             (-1e+300 -1e+300 -1e+300)             (-1e+300 -1e+300 -1e+300)             (-1e+300 -1e+300 -1e+300)             (-1e+300 -1e+300 -1e+300)
       11.274             (4.24049 -0.0448344 -0.0575139)             (4.37701 -0.756813 0.0313809)             (5.21279 -0.329092 -0.0047632)             (4.75926 -0.696049 0.184223)             (4.66978 -0.224528 0.216461)             (5.30675 -0.428032 0.221312)             (5.96345 0.108896 0.414398)             (5.94493 0.378816 0.528777)             (6.0062 0.433044 0.674787)             (6.06171 -0.406588 0.774161)             (6.18566 -0.498583 0.644984)             (6.26036 -0.385791 0.618343)             (6.64035 0.327251 0.854061)             (7.08346 0.366619 0.877272)             (5.99123 0.1523 0.649245)             (7.51561 0.783037 0.484916)             (7.67585 -0.103665 -0.140836)             (8.40785 -0.283458 0.261293)             (8.45131 -0.540118 -0.149701)             (8.56048 -0.229353 -0.171425)             (8.82686 -0.255137 -0.535049)             (8.55299 0.202811 -0.464567)             (8.31786 0.465425 -0.618996)             (8.72806 0.467947 -0.547542)             (9.18025 0.196664 -0.428594)             (8.98724 0.283679 -0.411064)             (8.59752 0.411682 -0.417222)             (8.2108 0.465411 -0.634104)             (7.85447 0.777692 -0.377738)             (7.85447 0.777692 -0.377738)             (8.09969 0.767283 -0.387948)             (8.6925 0.459155 -0.579678)             (9.21477 -0.196576 -0.523214)             (8.87178 -0.355508 -0.587119)             (8.5326 0.514983 -0.290802)             (8.18928 0.00652256 -0.364945)             (7.99269 -0.168289 -0.505153)             (7.73477 -0.0467209 -0.260452)             (-1e+300 -1e+300 -1e+300)             (-1e+300 -1e+300 -1e+300)             (-1e+300 -1e+300 -1e+300)             (-1e+300 -1e+300 -1e+300)             (-1e+300 -1e+300 -1e+300)             (-1e+300 -1e+300 -1e+300)             (-1e+300 -1e+300 -1e+300)             (-1e+300 -1e+300 -1e+300)             (-1e+300 -1e+300 -1e+300)             (-1e+300 -1e+300 -1e+300)             (-1e+300 -1e+300 -1e+300)             (-1e+300 -1e+300 -1e+300)             (-1e+300 -1e+300 -1e+300)             (-1e+300 -1e+300 -1e+300)             (-1e+300 -1e+300 -1e+300)             (-1e+300 -1e+300 -1e+300)             (-1e+300 -1e+300 -1e+300)
       11.276             (4.18057 -0.0561695 -0.00278039)             (4.3198 -0.749717 -0.0597368)             (5.00772 0.160411 -0.170056)             (5.09311 -0.276069 0.124185)             (4.87291 -0.111488 0.629307)             (5.34833 0.0361956 0.78423)             (5.86123 0.98976 0.9458)             (5.89425 1.09555 0.90371)             (5.79566 1.00937 0.706171)             (6.07089 -0.206904 0.407316)             (6.09641 -0.607015 0.121333)             (6.1906 -0.0663693 0.208792)             (6.7442 0.479121 0.397371)             (6.94374 0.162912 0.12515)             (5.70518 0.0922495 -0.072854)             (7.61726 0.0865416 0.208684)             (8.49452 -0.420996 -0.114502)             (8.71874 -0.789833 -0.00180403)             (8.02344 -0.724231 0.130592)             (8.23276 -0.322706 -0.041755)             (8.67789 -0.444814 -0.48338)             (8.30693 0.348452 -0.642504)             (8.35728 0.482181 -0.711409)             (8.99249 0.328856 -0.491457)             (9.39973 0.109223 -0.326859)             (9.15504 0.257941 -0.356323)             (8.64164 0.430595 -0.377657)             (8.20442 0.523404 -0.605592)             (7.87155 0.78602 -0.324572)             (7.87155 0.78602 -0.324572)             (8.11466 0.78737 -0.325242)             (8.58561 0.485471 -0.547928)             (9.10463 -0.173956 -0.491392)             (8.87221 -0.342668 -0.629298)             (8.51295 0.433702 -0.321)             (8.21397 -0.120026 -0.42684)             (8.09406 -0.343088 -0.52128)             (7.86152 -0.149754 -0.282618)             (-1e+300 -1e+300 -1e+300)             (-1e+300 -1e+300 -1e+300)             (-1e+300 -1e+300 -1e+300)             (-1e+300 -1e+300 -1e+300)             (-1e+300 -1e+300 -1e+300)             (-1e+300 -1e+300 -1e+300)             (-1e+300 -1e+300 -1e+300)             (-1e+300 -1e+300 -1e+300)             (-1e+300 -1e+300 -1e+300)             (-1e+300 -1e+300 -1e+300)             (-1e+300 -1e+300 -1e+300)             (-1e+300 -1e+300 -1e+300)             (-1e+300 -1e+300 -1e+300)             (-1e+300 -1e+300 -1e+300)             (-1e+300 -1e+300 -1e+300)             (-1e+300 -1e+300 -1e+300)             (-1e+300 -1e+300 -1e+300)
       11.278             (4.32416 -0.0362147 -0.0168173)             (4.56077 -0.367019 0.0255281)             (4.72415 0.423841 -0.285218)             (5.56469 0.41944 -0.208916)             (5.3782 0.236447 0.397374)             (5.50075 1.10906 1.30841)             (5.94626 1.80836 1.29865)             (5.81454 1.72822 1.14134)             (5.40619 1.21632 0.837098)             (5.64613 0.123741 0.446557)             (5.84356 -0.487826 0.0379272)             (5.89203 0.582903 -0.162801)             (6.79857 0.160745 -0.309766)             (6.92016 -0.0334146 -0.51514)             (6.25699 -0.135546 -0.212817)             (7.58638 -0.339371 -0.32479)             (8.17291 -0.499068 -0.90909)             (8.81135 -0.272543 -0.418218)             (7.97341 -0.593202 0.320285)             (7.87897 -0.426782 0.0245535)             (8.39601 -0.527261 -0.446806)             (8.14638 0.307091 -0.726825)             (8.47662 0.403193 -0.686336)             (9.24104 0.187968 -0.361083)             (9.53838 0.022098 -0.180612)             (9.29215 0.175412 -0.291786)             (8.69072 0.433364 -0.349373)             (8.2073 0.583237 -0.561505)             (7.90953 0.791761 -0.272307)             (7.90953 0.791761 -0.272307)             (8.13957 0.799493 -0.281955)             (8.50674 0.502211 -0.519379)             (9.02652 -0.140878 -0.461112)             (8.88784 -0.314023 -0.687491)             (8.49385 0.324001 -0.368634)             (8.24295 -0.248562 -0.494098)             (8.21398 -0.497438 -0.536263)             (8.01002 -0.245087 -0.295717)             (-1e+300 -1e+300 -1e+300)             (-1e+300 -1e+300 -1e+300)             (-1e+300 -1e+300 -1e+300)             (-1e+300 -1e+300 -1e+300)             (-1e+300 -1e+300 -1e+300)             (-1e+300 -1e+300 -1e+300)             (-1e+300 -1e+300 -1e+300)             (-1e+300 -1e+300 -1e+300)             (-1e+300 -1e+300 -1e+300)             (-1e+300 -1e+300 -1e+300)             (-1e+300 -1e+300 -1e+300)             (-1e+300 -1e+300 -1e+300)             (-1e+300 -1e+300 -1e+300)             (-1e+300 -1e+300 -1e+300)             (-1e+300 -1e+300 -1e+300)             (-1e+300 -1e+300 -1e+300)             (-1e+300 -1e+300 -1e+300)
        11.28             (4.4804 -0.0853175 -0.124527)             (4.87406 0.114256 0.0977124)             (4.8053 0.313235 -0.4496)             (5.24082 0.750191 -0.151802)             (5.20738 0.818813 0.186284)             (5.53062 1.82951 0.631801)             (5.95974 2.0459 0.398446)             (5.74408 2.02745 0.341254)             (4.90435 1.59662 0.48598)             (5.06605 0.56381 0.61182)             (5.47526 -0.0934345 0.324919)             (5.41757 0.515094 -0.159179)             (6.55598 0.0982098 -0.353982)             (6.99907 -0.518338 -0.543781)             (6.94616 -0.565285 -0.314807)             (7.22776 -0.645818 -0.457062)             (7.91602 -0.838305 -0.731941)             (8.60311 -0.520751 -0.208542)             (8.14146 -0.419957 0.0586572)             (7.65056 -0.480933 -0.111364)             (8.04415 -0.538325 -0.490962)             (8.11785 0.173671 -0.674692)             (8.61707 0.277131 -0.56364)             (9.383 0.0655188 -0.209599)             (9.55821 -0.0608388 -0.0465593)             (9.36404 0.057454 -0.235076)             (8.74877 0.412499 -0.345865)             (8.22161 0.62684 -0.499023)             (7.96982 0.792197 -0.22251)             (7.96982 0.792197 -0.22251)             (8.18022 0.79924 -0.256884)             (8.46662 0.507328 -0.487448)             (8.97754 -0.100185 -0.431294)             (8.90799 -0.277459 -0.751028)             (8.47866 0.193359 -0.422151)             (8.28067 -0.371516 -0.552127)             (8.35055 -0.621458 -0.546386)             (8.17242 -0.333798 -0.302089)             (-1e+300 -1e+300 -1e+300)             (-1e+300 -1e+300 -1e+300)             (-1e+300 -1e+300 -1e+300)             (-1e+300 -1e+300 -1e+300)             (-1e+300 -1e+300 -1e+300)             (-1e+300 -1e+300 -1e+300)             (-1e+300 -1e+300 -1e+300)             (-1e+300 -1e+300 -1e+300)             (-1e+300 -1e+300 -1e+300)             (-1e+300 -1e+300 -1e+300)             (-1e+300 -1e+300 -1e+300)             (-1e+300 -1e+300 -1e+300)             (-1e+300 -1e+300 -1e+300)             (-1e+300 -1e+300 -1e+300)             (-1e+300 -1e+300 -1e+300)             (-1e+300 -1e+300 -1e+300)             (-1e+300 -1e+300 -1e+300)
       11.282             (4.43536 -0.198858 -0.246379)             (5.09934 0.239734 -0.359278)             (5.13703 0.301081 -0.486089)             (5.28206 0.753733 -0.178551)             (5.15112 0.972026 0.146972)             (5.51426 1.75774 0.582164)             (5.80471 1.23216 0.79968)             (5.64849 1.07728 0.540051)             (4.84032 1.02112 0.0371636)             (4.78013 0.589992 0.556993)             (5.09962 0.094947 0.558813)             (4.92479 0.333203 0.278251)             (6.44569 -0.25915 0.190228)             (6.64761 -0.540832 -0.230047)             (6.8343 -0.719971 -0.569784)             (7.13728 -0.981876 -0.655938)             (7.47604 -1.12816 -0.667855)             (8.54412 -0.683512 -0.751976)             (7.99759 -0.17191 -0.208784)             (7.6046 -0.51928 -0.326278)             (7.77214 -0.580458 -0.490612)             (8.17786 -0.0275717 -0.504207)             (8.72075 0.0984317 -0.3753)             (9.3764 -0.0495794 -0.0834502)             (9.45985 -0.145027 0.0395929)             (9.34361 -0.0691313 -0.196655)             (8.79618 0.358635 -0.367692)             (8.23387 0.639873 -0.418733)             (8.03842 0.784743 -0.173151)             (8.03842 0.784743 -0.173151)             (8.22573 0.785496 -0.244695)             (8.45554 0.50328 -0.445178)             (8.93729 -0.0525801 -0.39769)             (8.90783 -0.238256 -0.804683)             (8.45476 0.0536864 -0.467152)             (8.31477 -0.477562 -0.585204)             (8.48315 -0.707152 -0.546373)             (8.32566 -0.415998 -0.304108)             (-1e+300 -1e+300 -1e+300)             (-1e+300 -1e+300 -1e+300)             (-1e+300 -1e+300 -1e+300)             (-1e+300 -1e+300 -1e+300)             (-1e+300 -1e+300 -1e+300)             (-1e+300 -1e+300 -1e+300)             (-1e+300 -1e+300 -1e+300)             (-1e+300 -1e+300 -1e+300)             (-1e+300 -1e+300 -1e+300)             (-1e+300 -1e+300 -1e+300)             (-1e+300 -1e+300 -1e+300)             (-1e+300 -1e+300 -1e+300)             (-1e+300 -1e+300 -1e+300)             (-1e+300 -1e+300 -1e+300)             (-1e+300 -1e+300 -1e+300)             (-1e+300 -1e+300 -1e+300)             (-1e+300 -1e+300 -1e+300)
       11.284             (4.32405 -0.179352 -0.277677)             (5.10088 0.262819 -0.829366)             (5.12286 0.787091 -0.432034)             (5.38933 1.10701 -0.23506)             (5.48358 1.18318 0.0899936)             (5.65377 1.01189 0.883599)             (5.51925 0.23111 0.759735)             (5.25864 0.091055 0.302387)             (5.00236 -0.0158966 -0.253217)             (4.97194 0.223924 0.444026)             (4.91487 0.0396299 0.556078)             (4.79995 0.10821 0.819398)             (5.90182 -0.652686 0.804796)             (6.35092 -0.650071 0.029319)             (6.76467 -1.21294 0.130191)             (7.10698 -1.43563 0.197581)             (7.2111 -1.78591 0.239871)             (7.45571 -2.00471 -0.342489)             (7.95253 -0.0372199 -0.301371)             (7.78074 -0.565005 -0.38343)             (7.6796 -0.706622 -0.34496)             (8.27608 -0.338789 -0.26584)             (8.7772 -0.169091 -0.163561)             (9.26491 -0.173454 0.0101551)             (9.29504 -0.233885 0.0780483)             (9.24687 -0.189204 -0.179319)             (8.82297 0.26075 -0.400867)             (8.24868 0.610117 -0.324382)             (8.11797 0.76596 -0.12249)             (8.11797 0.76596 -0.12249)             (8.2811 0.757995 -0.2387)             (8.47682 0.494152 -0.387819)             (8.9024 0.000951633 -0.356171)             (8.88426 -0.201123 -0.834466)             (8.43046 -0.0824977 -0.490822)             (8.35132 -0.556842 -0.580537)             (8.60639 -0.750487 -0.531713)             (8.46498 -0.490725 -0.303819)             (-1e+300 -1e+300 -1e+300)             (-1e+300 -1e+300 -1e+300)             (-1e+300 -1e+300 -1e+300)             (-1e+300 -1e+300 -1e+300)             (-1e+300 -1e+300 -1e+300)             (-1e+300 -1e+300 -1e+300)             (-1e+300 -1e+300 -1e+300)             (-1e+300 -1e+300 -1e+300)             (-1e+300 -1e+300 -1e+300)             (-1e+300 -1e+300 -1e+300)             (-1e+300 -1e+300 -1e+300)             (-1e+300 -1e+300 -1e+300)             (-1e+300 -1e+300 -1e+300)             (-1e+300 -1e+300 -1e+300)             (-1e+300 -1e+300 -1e+300)             (-1e+300 -1e+300 -1e+300)             (-1e+300 -1e+300 -1e+300)