# Probe 0 (0 0 0.005)
# Probe 1 (0 0 0.0155)
# Probe 2 (0 0 0.02653)
# Probe 3 (0 0 0.0381)
# Probe 4 (0 0 0.05026)
# Probe 5 (0 0 0.06302)
# Probe 6 (0 0 0.07642)
# Probe 7 (0 0 0.08)
# Probe 8 (0 0 0.09049)
# Probe 9 (0 0 0.10527)
# Probe 10 (0 0 0.12078)
# Probe 11 (0 0 0.13707)
# Probe 12 (0 0 0.15417)
# Probe 13 (0 0 0.17213)
# Probe 14 (0 0 0.19099)
# Probe 15 (0 0 0.2)
# Probe 16 (0 0 0.21079)
# Probe 17 (0 0 0.23157)
# Probe 18 (0 0 0.2534)
# Probe 19 (0 0 0.27632)
# Probe 20 (0 0 0.30039)
# Probe 21 (0 0 0.32566)
# Probe 22 (0 0 0.35219)
# Probe 23 (0 0 0.38005)
# Probe 24 (0 0 0.4093)
# Probe 25 (0 0 0.44002)
# Probe 26 (0 0 0.47227)
# Probe 27 (0 0 0.50613)
# Probe 28 (0 0 0.54169)
# Probe 29 (0 0 0.57903)
# Probe 30 (0 0 0.61823)
# Probe 31 (0 0 0.65939)
# Probe 32 (0 0 0.70261)
# Probe 33 (0 0 0.74799)
# Probe 34 (0 0 0.79564)
# Probe 35 (0 0 0.84567)
# Probe 36 (0 0 0.8982)
# Probe 37 (0 0 0.95336)
# Probe 38 (0 0 1.01128)
# Probe 39 (0 0 1.0721)
# Probe 40 (0 0 1.13595)
# Probe 41 (0 0 1.203)
# Probe 42 (0 0 1.2734)
# Probe 43 (0 0 1.34732)
# Probe 44 (0 0 1.42493)
# Probe 45 (0 0 1.50643)
# Probe 46 (0 0 1.592)
# Probe 47 (0 0 1.68185)
# Probe 48 (0 0 1.77619)
# Probe 49 (0 0 1.87525)
# Probe 50 (0 0 1.97927)
# Probe 51 (0 0 2.08848)
# Probe 52 (0 0 2.20315)
# Probe 53 (0 0 2.32356)
# Probe 54 (0 0 2.44999)
#       Probe             0             1             2             3             4             5             6             7             8             9            10            11            12            13            14            15            16            17            18            19            20            21            22            23            24            25            26            27            28            29            30            31            32            33            34            35            36            37            38            39            40            41            42            43            44            45            46            47            48            49            50            51            52            53            54
#        Time
        2.362       -1e+300       -1e+300       -1e+300       -1e+300       -1e+300       -1e+300       -1e+300        -18.34      -19.9069      -20.7836       -18.952      -16.3486      -14.7895      -13.6379      -13.0558      -12.6251      -12.1298      -11.0569      -10.3343      -9.86574      -9.53828      -9.03229      -8.70484      -8.25684      -8.03299      -7.81073      -7.73031      -7.47867      -7.25743      -7.25743      -7.26554      -7.18301      -7.12366      -7.14366      -7.10076      -7.03787      -6.89572      -6.95472       -1e+300       -1e+300       -1e+300       -1e+300       -1e+300       -1e+300       -1e+300       -1e+300       -1e+300       -1e+300       -1e+300       -1e+300       -1e+300       -1e+300       -1e+300       -1e+300       -1e+300
        2.364       -1e+300       -1e+300       -1e+300       -1e+300       -1e+300       -1e+300       -1e+300      -19.2516      -22.6057      -20.8914      -19.6992      -16.3602      -14.7133      -13.4851      -12.9034      -12.5095      -11.8864      -10.9506      -10.2741      -9.63689      -9.35571      -8.89172      -8.48421      -8.20261      -7.87589      -7.51461      -7.42755       -7.2191      -6.99369      -6.99369      -6.98281      -6.93018      -6.84517      -6.86676      -6.83404       -6.7532      -6.65149      -6.66699       -1e+300       -1e+300       -1e+300       -1e+300       -1e+300       -1e+300       -1e+300       -1e+300       -1e+300       -1e+300       -1e+300       -1e+300       -1e+300       -1e+300       -1e+300       -1e+300       -1e+300
        2.366       -1e+300       -1e+300       -1e+300       -1e+300       -1e+300       -1e+300       -1e+300      -16.6977      -20.7447         -20.6      -16.5458      -13.8375      -11.9845      -10.8401      -10.2103      -9.78004      -9.31532      -8.54732      -7.86522      -7.07346      -6.72213      -6.34242      -5.92307      -5.54534       -5.3198      -4.93011      -4.80967      -4.64624      -4.44609      -4.44609      -4.40317      -4.37749      -4.27148      -4.29498       -4.2824      -4.18574      -4.05037      -4.04062       -1e+300       -1e+300       -1e+300       -1e+300       -1e+300       -1e+300       -1e+300       -1e+300       -1e+300       -1e+300       -1e+300       -1e+300       -1e+300       -1e+300       -1e+300       -1e+300       -1e+300
        2.368       -1e+300       -1e+300       -1e+300       -1e+300       -1e+300       -1e+300       -1e+300      -11.3184      -14.5496      -14.9538      -11.3578      -8.81594      -7.15987      -5.85283      -5.23457      -4.90405      -4.47835      -3.84363      -3.26064      -2.32799      -1.86234      -1.51537      -1.13086     -0.768499     -0.557359      -0.17152    -0.0505433      0.106668      0.282036      0.282036      0.329673      0.334669      0.461922      0.438544      0.438906      0.534309      0.697423      0.705755       -1e+300       -1e+300       -1e+300       -1e+300       -1e+300       -1e+300       -1e+300       -1e+300       -1e+300       -1e+300       -1e+300       -1e+300       -1e+300       -1e+300       -1e+300       -1e+300       -1e+300
         2.37       -1e+300       -1e+300       -1e+300       -1e+300       -1e+300       -1e+300       -1e+300      -17.6845       -18.658      -16.7732      -16.0704      -14.1775      -12.3934      -11.0641      -10.2966      -10.0308      -9.72395      -9.02243      -8.37917      -7.58364      -7.13312      -6.76609      -6.44036      -6.06025      -5.86009      -5.54453      -5.43994      -5.28708      -5.08714      -5.08714      -5.05091      -5.05023       -4.9351      -4.95927      -4.98552       -4.8964      -4.72295      -4.68895       -1e+300       -1e+300       -1e+300       -1e+300       -1e+300       -1e+300       -1e+300       -1e+300       -1e+300       -1e+300       -1e+300       -1e+300       -1e+300       -1e+300       -1e+300       -1e+300       -1e+300
        2.372       -1e+300       -1e+300       -1e+300       -1e+300       -1e+300       -1e+300       -1e+300       -18.453      -18.1355      -15.5448      -15.2591      -13.8406      -11.9338      -10.5877      -9.74042      -9.37256      -8.95254      -8.35533      -7.47784       -6.9409      -6.59504       -6.2215      -5.90961      -5.46383      -5.26339      -4.99912      -4.91117      -4.74766      -4.56238      -4.56238      -4.50742      -4.51358      -4.41112       -4.4108      -4.42651      -4.35456      -4.18648      -4.12418       -1e+300       -1e+300       -1e+300       -1e+300       -1e+300       -1e+300       -1e+300       -1e+300       -1e+300       -1e+300       -1e+300       -1e+300       -1e+300       -1e+300       -1e+300       -1e+300       -1e+300
        2.374       -1e+300       -1e+300       -1e+300       -1e+300       -1e+300       -1e+300       -1e+300      -12.9418      -13.6433      -23.1075       -10.327      -8.02079      -6.21756      -4.67327      -3.73037      -3.18718       -2.8692      -2.00754      -1.24549     -0.801075     -0.493812     -0.124167      0.201303      0.599761      0.817147         1.061       1.14658        1.2987       1.43459       1.43459       1.50623        1.4832       1.58999       1.61378       1.59459       1.64183       1.82882       1.91272       -1e+300       -1e+300       -1e+300       -1e+300       -1e+300       -1e+300       -1e+300       -1e+300       -1e+300       -1e+300       -1e+300       -1e+300       -1e+300       -1e+300       -1e+300       -1e+300       -1e+300
        2.376       -1e+300       -1e+300       -1e+300       -1e+300       -1e+300       -1e+300       -1e+300      -18.1498      -18.3321      -23.7425      -15.8641      -13.1623       -11.634       -9.8281       -8.9528      -8.46718       -8.0271      -6.75835      -6.21676      -5.84722      -5.54748      -5.08955      -4.77895      -4.49303      -4.27237      -4.06474      -3.97408       -3.8556      -3.73445      -3.73445      -3.65441      -3.68614       -3.5944       -3.5595      -3.58668      -3.53879      -3.39391      -3.29559       -1e+300       -1e+300       -1e+300       -1e+300       -1e+300       -1e+300       -1e+300       -1e+300       -1e+300       -1e+300       -1e+300       -1e+300       -1e+300       -1e+300       -1e+300       -1e+300       -1e+300
        2.378       -1e+300       -1e+300       -1e+300       -1e+300       -1e+300       -1e+300       -1e+300        -16.49      -16.9655      -14.3995      -15.1123      -12.0891      -10.2842      -8.51769      -7.75432      -7.17339      -6.64521      -5.61147      -4.78368      -4.49172      -4.16992      -3.65675      -3.37497      -3.12418      -2.88362      -2.72269      -2.62805      -2.52493      -2.43996      -2.43996      -2.36029      -2.39897      -2.30636      -2.26619      -2.30248       -2.2833      -2.16055      -2.05388       -1e+300       -1e+300       -1e+300       -1e+300       -1e+300       -1e+300       -1e+300       -1e+300       -1e+300       -1e+300       -1e+300       -1e+300       -1e+300       -1e+300       -1e+300       -1e+300       -1e+300
         2.38       -1e+300       -1e+300       -1e+300       -1e+300       -1e+300       -1e+300       -1e+300      -14.9762      -16.5904      -15.7786      -14.4038      -11.4218      -9.38134      -7.69058      -6.80665      -6.23376      -5.81235      -4.87528      -3.83881      -3.53277      -3.17176      -2.76145      -2.51604      -2.21668      -2.00977      -1.88607      -1.80132      -1.68807      -1.60705      -1.60705      -1.53814      -1.55061      -1.47062      -1.43064      -1.46095      -1.46002      -1.36836      -1.26681       -1e+300       -1e+300       -1e+300       -1e+300       -1e+300       -1e+300       -1e+300       -1e+300       -1e+300       -1e+300       -1e+300       -1e+300       -1e+300       -1e+300       -1e+300       -1e+300       -1e+300
        2.382       -1e+300       -1e+300       -1e+300       -1e+300       -1e+300       -1e+300       -1e+300      -15.6981      -17.9519      -16.0247      -13.9193      -11.7192      -9.62939      -7.81665       -6.8306      -6.31473      -5.82011      -4.60922      -3.94669      -3.52988      -3.14552      -2.84154      -2.59712       -2.2771      -2.12021      -2.01158      -1.91679      -1.76965      -1.64305      -1.64305      -1.58327      -1.58127      -1.47732      -1.42885      -1.43977      -1.44178      -1.37466      -1.28249       -1e+300       -1e+300       -1e+300       -1e+300       -1e+300       -1e+300       -1e+300       -1e+300       -1e+300       -1e+300       -1e+300       -1e+300       -1e+300       -1e+300       -1e+300       -1e+300       -1e+300
        2.384       -1e+300       -1e+300       -1e+300       -1e+300       -1e+300       -1e+300       -1e+300       -13.785      -16.1402      -15.1709      -12.5764      -10.3407      -8.08492      -6.14891      -5.09537      -4.52394      -4.00968      -2.94282      -2.40705       -1.8271      -1.43374      -1.14847      -0.89972     -0.614295     -0.496154     -0.363327     -0.245865     -0.076928      0.100124      0.100124      0.131348      0.112748       0.24868      0.311927      0.298289       0.28193      0.331581      0.406808       -1e+300       -1e+300       -1e+300       -1e+300       -1e+300       -1e+300       -1e+300       -1e+300       -1e+300       -1e+300       -1e+300       -1e+300       -1e+300       -1e+300       -1e+300       -1e+300       -1e+300
        2.386       -1e+300       -1e+300       -1e+300       -1e+300       -1e+300       -1e+300       -1e+300      -15.7415      -19.9462      -18.4283      -16.5467      -14.0653      -11.5857      -9.65642      -8.56318      -7.96034      -7.47778      -6.78452      -6.10676       -5.3304      -5.01389      -4.66581      -4.43438      -4.27482      -4.19861      -4.01283      -3.87848       -3.7021      -3.48332      -3.48332      -3.49557      -3.48427      -3.36024       -3.3202      -3.32368      -3.35052      -3.31735      -3.27462       -1e+300       -1e+300       -1e+300       -1e+300       -1e+300       -1e+300       -1e+300       -1e+300       -1e+300       -1e+300       -1e+300       -1e+300       -1e+300       -1e+300       -1e+300       -1e+300       -1e+300
        2.388       -1e+300       -1e+300       -1e+300       -1e+300       -1e+300       -1e+300       -1e+300      -14.6374      -18.7317      -20.1094      -17.0499      -13.0384      -10.4445      -8.48752      -7.33289      -6.68719      -6.15839      -5.37196      -4.66183      -4.06375      -3.80505      -3.43809      -3.30174      -3.16541      -3.05861      -2.85442      -2.69849      -2.49517      -2.26612      -2.26612      -2.30342      -2.27241      -2.14529      -2.10331      -2.10806      -2.15236      -2.13544      -2.12043       -1e+300       -1e+300       -1e+300       -1e+300       -1e+300       -1e+300       -1e+300       -1e+300       -1e+300       -1e+300       -1e+300       -1e+300       -1e+300       -1e+300       -1e+300       -1e+300       -1e+300
         2.39       -1e+300       -1e+300       -1e+300       -1e+300       -1e+300       -1e+300       -1e+300       -9.4097      -13.8131      -15.1773      -12.1205      -8.77015      -6.02891      -4.04849      -2.85237      -2.21219      -1.74431     -0.709466     -0.187562      0.315971      0.636782       0.98377        1.0194       1.32068       1.48198       1.71745       1.85742       2.08808       2.27784       2.27784       2.26012       2.30116       2.41705       2.46439       2.46848       2.42607        2.4358       2.43161       -1e+300       -1e+300       -1e+300       -1e+300       -1e+300       -1e+300       -1e+300       -1e+300       -1e+300       -1e+300       -1e+300       -1e+300       -1e+300       -1e+300       -1e+300       -1e+300       -1e+300
        2.392       -1e+300       -1e+300       -1e+300       -1e+300       -1e+300       -1e+300       -1e+300      -12.7181      -16.0852      -15.8859      -19.6787      -11.6003      -8.82239      -6.75872      -5.46174      -4.91418      -4.51909      -3.44494      -2.93304      -2.48917      -2.15299      -1.91033       -1.8563      -1.41908       -1.2594      -1.03969     -0.913633     -0.675953     -0.493468     -0.493468     -0.496844     -0.421426     -0.315367      -0.22864     -0.279816     -0.327123     -0.333725     -0.369097       -1e+300       -1e+300       -1e+300       -1e+300       -1e+300       -1e+300       -1e+300       -1e+300       -1e+300       -1e+300       -1e+300       -1e+300       -1e+300       -1e+300       -1e+300       -1e+300       -1e+300
        2.394       -1e+300       -1e+300       -1e+300       -1e+300       -1e+300       -1e+300       -1e+300      -17.4398      -19.1394      -17.5493      -17.9064      -14.9701      -12.3833      -10.2154      -8.89576      -8.44525      -7.92979      -6.93919      -6.27225      -5.97698      -5.68549      -5.46508      -5.25847      -4.89739      -4.81437      -4.60924      -4.48943      -4.28253      -4.12169      -4.12169        -4.102      -4.02039      -3.94691       -3.9108      -3.93387      -3.99923      -4.00404       -4.0614       -1e+300       -1e+300       -1e+300       -1e+300       -1e+300       -1e+300       -1e+300       -1e+300       -1e+300       -1e+300       -1e+300       -1e+300       -1e+300       -1e+300       -1e+300       -1e+300       -1e+300
        2.396       -1e+300       -1e+300       -1e+300       -1e+300       -1e+300       -1e+300       -1e+300      -14.5654      -15.7372      -16.8307      -13.2478      -11.1285      -8.28507      -6.16024      -5.18866      -4.97344      -4.05686      -2.99271      -2.38952      -1.99357      -1.68888      -1.33463      -1.05497     -0.856753     -0.837967     -0.581215     -0.453233     -0.279667     -0.157481     -0.157481     -0.104286    -0.0132136     0.0505867     0.0979031     0.0519603    -0.0151882    -0.0230998    -0.0936747       -1e+300       -1e+300       -1e+300       -1e+300       -1e+300       -1e+300       -1e+300       -1e+300       -1e+300       -1e+300       -1e+300       -1e+300       -1e+300       -1e+300       -1e+300       -1e+300       -1e+300
        2.398       -1e+300       -1e+300       -1e+300       -1e+300       -1e+300       -1e+300       -1e+300      -17.3932      -19.1483      -20.0574      -17.2358      -13.9467      -10.9016      -8.97649      -8.55483       -7.8122      -6.82398      -5.91639      -5.26056      -4.85296      -4.52675      -4.06455      -3.81475      -3.78076      -3.70417       -3.4178      -3.27852      -3.15017      -3.03553      -3.03553      -2.94904      -2.82856       -2.7686      -2.71822      -2.75345       -2.8325      -2.82822      -2.89345       -1e+300       -1e+300       -1e+300       -1e+300       -1e+300       -1e+300       -1e+300       -1e+300       -1e+300       -1e+300       -1e+300       -1e+300       -1e+300       -1e+300       -1e+300       -1e+300       -1e+300
          2.4       -1e+300       -1e+300       -1e+300       -1e+300       -1e+300       -1e+300       -1e+300       -16.883      -16.9025      -19.7459      -14.1939      -13.1597      -10.5887      -8.81235      -8.35896      -7.53738      -6.94887      -5.88802      -5.16302      -4.73392      -4.40731       -3.8929        -3.698       -3.6657      -3.55656      -3.24966      -3.10735      -3.03889      -2.95233      -2.95233       -2.8443      -2.72224       -2.6707      -2.62241      -2.66918      -2.71923      -2.73314      -2.78293       -1e+300       -1e+300       -1e+300       -1e+300       -1e+300       -1e+300       -1e+300       -1e+300       -1e+300       -1e+300       -1e+300       -1e+300       -1e+300       -1e+300       -1e+300       -1e+300       -1e+300
        2.402       -1e+300       -1e+300       -1e+300       -1e+300       -1e+300       -1e+300       -1e+300      -11.4915       -11.813       -14.453       -12.501      -8.34323      -5.94375         -4.35      -3.84601      -3.19768       -2.9932      -1.54423     -0.872701     -0.383082    -0.0514314      0.443878      0.621824        0.8039      0.928229       1.24752       1.38627        1.4072       1.44447       1.44447        1.5733        1.7002       1.75186       1.80503       1.76992       1.72806       1.72635        1.6567       -1e+300       -1e+300       -1e+300       -1e+300       -1e+300       -1e+300       -1e+300       -1e+300       -1e+300       -1e+300       -1e+300       -1e+300       -1e+300       -1e+300       -1e+300       -1e+300       -1e+300
        2.404       -1e+300       -1e+300       -1e+300       -1e+300       -1e+300       -1e+300       -1e+300      -13.4492      -12.9315      -16.8462      -17.4711      -11.3421      -8.44597      -6.94461      -6.39921      -5.88769      -5.72977      -4.41307      -3.85625      -3.36455      -3.05303      -2.58184      -2.39663      -2.11309      -1.99009      -1.65867       -1.5295      -1.52139      -1.47769      -1.47769      -1.32887      -1.20152      -1.15489      -1.09402      -1.11593      -1.13019      -1.11721      -1.19998       -1e+300       -1e+300       -1e+300       -1e+300       -1e+300       -1e+300       -1e+300       -1e+300       -1e+300       -1e+300       -1e+300       -1e+300       -1e+300       -1e+300       -1e+300       -1e+300       -1e+300
        2.406       -1e+300       -1e+300       -1e+300       -1e+300       -1e+300       -1e+300       -1e+300      -12.9907      -14.5258       -16.587      -13.7635      -12.4463      -9.62279      -8.16825      -7.50959      -7.12304      -6.87195      -6.05816      -5.39825      -4.89562      -4.60608      -4.18557      -4.03093      -3.69444      -3.56861      -3.23773       -3.1592      -3.11503       -3.0546       -3.0546      -2.91437      -2.77787      -2.73368      -2.67662      -2.68331      -2.68499      -2.66373      -2.70104       -1e+300       -1e+300       -1e+300       -1e+300       -1e+300       -1e+300       -1e+300       -1e+300       -1e+300       -1e+300       -1e+300       -1e+300       -1e+300       -1e+300       -1e+300       -1e+300       -1e+300
        2.408       -1e+300       -1e+300       -1e+300       -1e+300       -1e+300       -1e+300       -1e+300      -14.6566      -15.4583      -21.8024      -16.7143      -13.8659      -11.6904      -10.5718      -9.90554      -9.50011      -9.19707       -8.4326      -7.60068      -7.12591      -6.80847      -6.42914      -6.30371      -6.00779      -5.85947      -5.56375       -5.5088      -5.41007      -5.31244      -5.31244      -5.20001      -5.05308      -5.01952      -4.95052      -4.94802      -4.92318      -4.88364      -4.91569       -1e+300       -1e+300       -1e+300       -1e+300       -1e+300       -1e+300       -1e+300       -1e+300       -1e+300       -1e+300       -1e+300       -1e+300       -1e+300       -1e+300       -1e+300       -1e+300       -1e+300
         2.41       -1e+300       -1e+300       -1e+300       -1e+300       -1e+300       -1e+300       -1e+300      -17.6925      -18.4035      -20.4626      -13.7155       -15.006      -14.2517      -13.1873       -12.527      -12.1109      -11.6444      -10.8411      -10.0668      -9.61067      -9.22655      -8.88977      -8.74672      -8.48061      -8.31299      -8.08167      -8.01821      -7.86788      -7.72241      -7.72241      -7.65112       -7.5236      -7.48397      -7.43261      -7.43068      -7.38614      -7.33307      -7.34496       -1e+300       -1e+300       -1e+300       -1e+300       -1e+300       -1e+300       -1e+300       -1e+300       -1e+300       -1e+300       -1e+300       -1e+300       -1e+300       -1e+300       -1e+300       -1e+300       -1e+300
        2.412       -1e+300       -1e+300       -1e+300       -1e+300       -1e+300       -1e+300       -1e+300      -14.8885      -15.9914      -14.4377      -11.4787       -11.838      -11.7077       -10.853      -10.2623        -9.742      -9.06788      -8.32436        -7.805      -7.22507      -6.77419      -6.42152      -6.24082      -5.94652      -5.78476      -5.60974      -5.51371      -5.32966      -5.17113      -5.17113      -5.13147      -4.99318      -4.95688       -4.9019      -4.92363      -4.86327      -4.79423      -4.80214       -1e+300       -1e+300       -1e+300       -1e+300       -1e+300       -1e+300       -1e+300       -1e+300       -1e+300       -1e+300       -1e+300       -1e+300       -1e+300       -1e+300       -1e+300       -1e+300       -1e+300
        2.414       -1e+300       -1e+300       -1e+300       -1e+300       -1e+300       -1e+300       -1e+300      -11.2157        -12.18      -10.7144      -8.67067      -8.38797       -7.9335      -7.48331      -6.48711      -5.86833      -5.36116      -4.70507      -4.19254      -3.48813      -2.91285      -2.49849      -2.30315       -1.9549      -1.83996      -1.66814      -1.54247      -1.33831      -1.18321      -1.18321      -1.13104     -0.998504     -0.954893     -0.928249     -0.921623     -0.829614     -0.753966      -0.74253       -1e+300       -1e+300       -1e+300       -1e+300       -1e+300       -1e+300       -1e+300       -1e+300       -1e+300       -1e+300       -1e+300       -1e+300       -1e+300       -1e+300       -1e+300       -1e+300       -1e+300
        2.416       -1e+300       -1e+300       -1e+300       -1e+300       -1e+300       -1e+300       -1e+300      -15.3406      -16.5279      -14.4788      -14.2147      -14.1503      -12.9969      -11.7048      -10.5871      -10.0604      -9.67459      -9.18666      -8.60526       -7.7329      -7.06788      -6.62814        -6.413      -6.01612      -5.98884      -5.81329       -5.6223      -5.41541      -5.23434      -5.23434      -5.15317      -5.03173      -4.97783      -4.95939      -4.95208       -4.8395      -4.75617      -4.73901       -1e+300       -1e+300       -1e+300       -1e+300       -1e+300       -1e+300       -1e+300       -1e+300       -1e+300       -1e+300       -1e+300       -1e+300       -1e+300       -1e+300       -1e+300       -1e+300       -1e+300
        2.418       -1e+300       -1e+300       -1e+300       -1e+300       -1e+300       -1e+300       -1e+300      -24.8193      -26.1678      -25.3559        -23.29      -24.7233       -22.622      -20.1829      -19.0873      -18.5782      -18.2411      -18.0169       -17.229      -16.3115      -15.7705      -15.2568      -15.0067      -14.5993      -14.6638      -14.4596      -14.2734       -14.005      -13.8303      -13.8303      -13.7167      -13.6325      -13.5835      -13.5794      -13.5802      -13.4585      -13.3745       -13.362       -1e+300       -1e+300       -1e+300       -1e+300       -1e+300       -1e+300       -1e+300       -1e+300       -1e+300       -1e+300       -1e+300       -1e+300       -1e+300       -1e+300       -1e+300       -1e+300       -1e+300
         2.42       -1e+300       -1e+300       -1e+300       -1e+300       -1e+300       -1e+300       -1e+300      -24.8199      -26.1552      -25.2561      -22.4772      -22.0389      -21.2895      -19.6746      -18.7063      -18.1058      -17.6697      -17.4536      -16.4672      -15.9215      -15.5101      -14.8637      -14.6037      -14.1883       -14.273      -14.0586      -13.8456      -13.6194      -13.4911      -13.4911      -13.1833      -13.2024       -13.158      -13.1707      -13.1414      -12.9992      -12.9202      -12.9126       -1e+300       -1e+300       -1e+300       -1e+300       -1e+300       -1e+300       -1e+300       -1e+300       -1e+300       -1e+300       -1e+300       -1e+300       -1e+300       -1e+300       -1e+300       -1e+300       -1e+300
        2.422       -1e+300       -1e+300       -1e+300       -1e+300       -1e+300       -1e+300       -1e+300      -17.5712      -20.0825      -18.2782      -15.2993       -14.267      -13.7322      -12.3902      -11.4334      -10.7508      -10.0961      -9.36175       -8.7856      -8.61315      -8.20416      -7.53056      -7.27563        -6.825      -6.86801      -6.64599      -6.40427      -6.15289      -5.99016      -5.99016      -5.83659      -5.79315      -5.73059       -5.7273      -5.66828      -5.50967       -5.4293      -5.43073       -1e+300       -1e+300       -1e+300       -1e+300       -1e+300       -1e+300       -1e+300       -1e+300       -1e+300       -1e+300       -1e+300       -1e+300       -1e+300       -1e+300       -1e+300       -1e+300       -1e+300
        2.424       -1e+300       -1e+300       -1e+300       -1e+300       -1e+300       -1e+300       -1e+300      -17.8284      -19.5613       -18.516      -16.2929       -15.234      -13.6179      -12.4365       -11.609      -10.9452      -10.1655      -9.29116         -9.43      -9.02419      -8.60109      -8.05776      -7.79495       -7.4171      -7.33948      -7.08935      -6.87951      -6.61998      -6.44432      -6.44432       -6.3086      -6.29289      -6.24075      -6.23218      -6.13565      -5.96969      -5.88658      -5.89672       -1e+300       -1e+300       -1e+300       -1e+300       -1e+300       -1e+300       -1e+300       -1e+300       -1e+300       -1e+300       -1e+300       -1e+300       -1e+300       -1e+300       -1e+300       -1e+300       -1e+300
        2.426       -1e+300       -1e+300       -1e+300       -1e+300       -1e+300       -1e+300       -1e+300      -21.0367      -20.1351      -19.7129      -19.1981      -17.6076      -15.9977      -14.4461      -13.4312      -12.5648      -12.1637       -11.983      -11.7229      -11.2918      -10.8309      -10.3875      -10.1169       -9.8044      -9.67866      -9.37538      -9.16818      -8.92579      -8.72608      -8.72608      -8.60248      -8.60396      -8.55928      -8.53486      -8.41759      -8.25125      -8.18165      -8.20552       -1e+300       -1e+300       -1e+300       -1e+300       -1e+300       -1e+300       -1e+300       -1e+300       -1e+300       -1e+300       -1e+300       -1e+300       -1e+300       -1e+300       -1e+300       -1e+300       -1e+300
        2.428       -1e+300       -1e+300       -1e+300       -1e+300       -1e+300       -1e+300       -1e+300      -21.9428      -22.6795      -24.2273      -21.3081      -19.1379      -17.2355      -15.5003      -14.1269       -13.287      -13.2324      -13.3261      -13.0869       -12.545       -11.986      -11.5394      -11.2742      -11.0476      -10.8864      -10.5539      -10.3261      -10.0976      -9.88313      -9.88313      -9.75624      -9.75754      -9.73098      -9.70207      -9.55095       -9.3833      -9.31642      -9.34565       -1e+300       -1e+300       -1e+300       -1e+300       -1e+300       -1e+300       -1e+300       -1e+300       -1e+300       -1e+300       -1e+300       -1e+300       -1e+300       -1e+300       -1e+300       -1e+300       -1e+300
         2.43       -1e+300       -1e+300       -1e+300       -1e+300       -1e+300       -1e+300       -1e+300      -21.2333      -24.3745      -29.5095       -25.117       -18.717      -16.1831      -14.0779       -12.806       -12.175      -12.3804      -12.4762      -12.1026      -11.5059      -10.9399      -10.4554      -10.1992       -9.9715      -9.84435      -9.46504      -9.19704      -8.97323      -8.75078      -8.75078      -8.62046      -8.60817      -8.60031      -8.55698      -8.36585       -8.1992      -8.12923      -8.16448       -1e+300       -1e+300       -1e+300       -1e+300       -1e+300       -1e+300       -1e+300       -1e+300       -1e+300       -1e+300       -1e+300       -1e+300       -1e+300       -1e+300       -1e+300       -1e+300       -1e+300