# Probe 0 (0 0 0.005)
# Probe 1 (0 0 0.0155)
# Probe 2 (0 0 0.02653)
# Probe 3 (0 0 0.0381)
# Probe 4 (0 0 0.05026)
# Probe 5 (0 0 0.06302)
# Probe 6 (0 0 0.07642)
# Probe 7 (0 0 0.08)
# Probe 8 (0 0 0.09049)
# Probe 9 (0 0 0.10527)
# Probe 10 (0 0 0.12078)
# Probe 11 (0 0 0.13707)
# Probe 12 (0 0 0.15417)
# Probe 13 (0 0 0.17213)
# Probe 14 (0 0 0.19099)
# Probe 15 (0 0 0.2)
# Probe 16 (0 0 0.21079)
# Probe 17 (0 0 0.23157)
# Probe 18 (0 0 0.2534)
# Probe 19 (0 0 0.27632)
# Probe 20 (0 0 0.30039)
# Probe 21 (0 0 0.32566)
# Probe 22 (0 0 0.35219)
# Probe 23 (0 0 0.38005)
# Probe 24 (0 0 0.4093)
# Probe 25 (0 0 0.44002)
# Probe 26 (0 0 0.47227)
# Probe 27 (0 0 0.50613)
# Probe 28 (0 0 0.54169)
# Probe 29 (0 0 0.57903)
# Probe 30 (0 0 0.61823)
# Probe 31 (0 0 0.65939)
# Probe 32 (0 0 0.70261)
# Probe 33 (0 0 0.74799)
# Probe 34 (0 0 0.79564)
# Probe 35 (0 0 0.84567)
# Probe 36 (0 0 0.8982)
# Probe 37 (0 0 0.95336)
# Probe 38 (0 0 1.01128)
# Probe 39 (0 0 1.0721)
# Probe 40 (0 0 1.13595)
# Probe 41 (0 0 1.203)
# Probe 42 (0 0 1.2734)
# Probe 43 (0 0 1.34732)
# Probe 44 (0 0 1.42493)
# Probe 45 (0 0 1.50643)
# Probe 46 (0 0 1.592)
# Probe 47 (0 0 1.68185)
# Probe 48 (0 0 1.77619)
# Probe 49 (0 0 1.87525)
# Probe 50 (0 0 1.97927)
# Probe 51 (0 0 2.08848)
# Probe 52 (0 0 2.20315)
# Probe 53 (0 0 2.32356)
# Probe 54 (0 0 2.44999)
#       Probe             0             1             2             3             4             5             6             7             8             9            10            11            12            13            14            15            16            17            18            19            20            21            22            23            24            25            26            27            28            29            30            31            32            33            34            35            36            37            38            39            40            41            42            43            44            45            46            47            48            49            50            51            52            53            54
#        Time
        2.362             (-1e+300 -1e+300 -1e+300)             (-1e+300 -1e+300 -1e+300)             (-1e+300 -1e+300 -1e+300)             (-1e+300 -1e+300 -1e+300)             (-1e+300 -1e+300 -1e+300)             (-1e+300 -1e+300 -1e+300)             (-1e+300 -1e+300 -1e+300)             (-0.102103 -0.0843852 -0.000120187)             (1.89418 -2.63356 -1.95038)             (4.1778 -2.02428 -0.758782)             (6.19647 -0.689302 -0.984793)             (7.04227 -1.13922 -0.2195)             (6.75116 -0.178866 -0.375947)             (6.46218 1.49264 -1.04432)             (6.42647 1.32064 -0.756283)             (6.75454 1.00764 -0.781156)             (7.37176 0.180526 -0.637697)             (7.43622 0.236375 -0.315509)             (7.60139 0.531526 0.0998268)             (7.67114 0.233888 -0.295325)             (7.66948 0.358878 -0.501477)             (7.97893 0.630347 -0.322684)             (8.62369 0.683023 -0.255315)             (8.79676 0.379273 -0.180079)             (9.39896 0.339385 -0.046237)             (9.52871 0.584643 0.121992)             (8.89757 0.497091 0.1338)             (9.11235 0.281665 -0.097927)             (9.03724 0.371161 0.0334753)             (9.03724 0.371161 0.0334753)             (9.03994 0.215854 0.0692843)             (8.79508 -0.155632 -0.0084353)             (8.68041 -0.0915668 0.044369)             (8.60404 -0.0281984 0.111254)             (9.03469 -0.0268925 -0.119022)             (8.99648 0.0858412 -0.149868)             (9.01728 -0.0468356 0.0463356)             (8.65667 -0.287144 0.0523711)             (-1e+300 -1e+300 -1e+300)             (-1e+300 -1e+300 -1e+300)             (-1e+300 -1e+300 -1e+300)             (-1e+300 -1e+300 -1e+300)             (-1e+300 -1e+300 -1e+300)             (-1e+300 -1e+300 -1e+300)             (-1e+300 -1e+300 -1e+300)             (-1e+300 -1e+300 -1e+300)             (-1e+300 -1e+300 -1e+300)             (-1e+300 -1e+300 -1e+300)             (-1e+300 -1e+300 -1e+300)             (-1e+300 -1e+300 -1e+300)             (-1e+300 -1e+300 -1e+300)             (-1e+300 -1e+300 -1e+300)             (-1e+300 -1e+300 -1e+300)             (-1e+300 -1e+300 -1e+300)             (-1e+300 -1e+300 -1e+300)
        2.364             (-1e+300 -1e+300 -1e+300)             (-1e+300 -1e+300 -1e+300)             (-1e+300 -1e+300 -1e+300)             (-1e+300 -1e+300 -1e+300)             (-1e+300 -1e+300 -1e+300)             (-1e+300 -1e+300 -1e+300)             (-1e+300 -1e+300 -1e+300)             (-0.123453 -0.0605298 8.79806e-05)             (0.136903 -2.70728 -1.80262)             (3.75155 -1.17951 -1.79295)             (7.35229 -0.831568 0.369675)             (7.49916 -0.967641 -0.252111)             (6.81646 -0.66338 -0.410167)             (6.37641 1.17384 -0.97542)             (6.93046 0.709847 -0.543055)             (7.41889 0.468273 -0.269817)             (7.292 -0.0262047 -0.491651)             (7.30923 0.557179 0.027678)             (7.77282 0.485776 0.313577)             (7.62551 0.275661 0.247207)             (7.72263 0.227732 0.00674562)             (8.08757 0.593097 0.0691424)             (8.67563 0.800316 0.200644)             (8.85913 0.287175 -0.0499931)             (9.4676 0.360411 0.0742253)             (9.65069 0.654654 0.00312775)             (8.94534 0.451974 0.00904812)             (9.15886 0.367887 -0.0687632)             (9.0393 0.425492 0.0696679)             (9.0393 0.425492 0.0696679)             (9.04048 0.289375 0.146183)             (8.83195 -0.128243 0.0548493)             (8.67876 -0.0731095 0.0875732)             (8.5692 -0.0790843 0.147784)             (9.08038 -0.00430922 -0.0418479)             (9.07698 0.138508 -0.0821151)             (9.07954 0.0586732 0.0948253)             (8.72846 -0.205208 0.0600966)             (-1e+300 -1e+300 -1e+300)             (-1e+300 -1e+300 -1e+300)             (-1e+300 -1e+300 -1e+300)             (-1e+300 -1e+300 -1e+300)             (-1e+300 -1e+300 -1e+300)             (-1e+300 -1e+300 -1e+300)             (-1e+300 -1e+300 -1e+300)             (-1e+300 -1e+300 -1e+300)             (-1e+300 -1e+300 -1e+300)             (-1e+300 -1e+300 -1e+300)             (-1e+300 -1e+300 -1e+300)             (-1e+300 -1e+300 -1e+300)             (-1e+300 -1e+300 -1e+300)             (-1e+300 -1e+300 -1e+300)             (-1e+300 -1e+300 -1e+300)             (-1e+300 -1e+300 -1e+300)             (-1e+300 -1e+300 -1e+300)
        2.366             (-1e+300 -1e+300 -1e+300)             (-1e+300 -1e+300 -1e+300)             (-1e+300 -1e+300 -1e+300)             (-1e+300 -1e+300 -1e+300)             (-1e+300 -1e+300 -1e+300)             (-1e+300 -1e+300 -1e+300)             (-1e+300 -1e+300 -1e+300)             (-0.19167 -0.00588986 0.000139529)             (0.561436 -0.0891859 -2.69097)             (3.46658 -0.838264 -0.754275)             (6.35846 -1.57629 -0.046239)             (7.41843 -0.891317 0.130994)             (7.0487 -0.722811 -0.600223)             (6.45814 0.606986 -0.580029)             (7.37218 0.384626 -0.0957604)             (7.32236 -0.0460369 0.0987653)             (7.19001 -0.175179 0.190721)             (7.11815 0.494018 0.326352)             (8.0756 0.566151 0.240184)             (7.8478 0.49087 0.63402)             (7.8486 0.167299 0.508422)             (8.35388 0.381333 0.460491)             (8.68679 0.565227 0.599035)             (8.85292 0.244228 0.212046)             (9.41266 0.343176 0.222967)             (9.77111 0.554403 -0.0930043)             (9.04153 0.369037 -0.0652711)             (9.21128 0.450412 -0.0178793)             (9.04557 0.459532 0.101733)             (9.04557 0.459532 0.101733)             (9.03562 0.357822 0.211104)             (8.86449 -0.0775796 0.110106)             (8.67491 -0.0590886 0.118498)             (8.54711 -0.13148 0.174277)             (9.11834 0.00201187 0.0526944)             (9.1581 0.157921 0.00619822)             (9.14546 0.151273 0.158993)             (8.80579 -0.105823 0.080753)             (-1e+300 -1e+300 -1e+300)             (-1e+300 -1e+300 -1e+300)             (-1e+300 -1e+300 -1e+300)             (-1e+300 -1e+300 -1e+300)             (-1e+300 -1e+300 -1e+300)             (-1e+300 -1e+300 -1e+300)             (-1e+300 -1e+300 -1e+300)             (-1e+300 -1e+300 -1e+300)             (-1e+300 -1e+300 -1e+300)             (-1e+300 -1e+300 -1e+300)             (-1e+300 -1e+300 -1e+300)             (-1e+300 -1e+300 -1e+300)             (-1e+300 -1e+300 -1e+300)             (-1e+300 -1e+300 -1e+300)             (-1e+300 -1e+300 -1e+300)             (-1e+300 -1e+300 -1e+300)             (-1e+300 -1e+300 -1e+300)
        2.368             (-1e+300 -1e+300 -1e+300)             (-1e+300 -1e+300 -1e+300)             (-1e+300 -1e+300 -1e+300)             (-1e+300 -1e+300 -1e+300)             (-1e+300 -1e+300 -1e+300)             (-1e+300 -1e+300 -1e+300)             (-1e+300 -1e+300 -1e+300)             (-0.178803 0.0355618 -0.000284491)             (-0.839258 0.0132194 -1.40007)             (2.18655 -1.77542 -0.37772)             (6.29369 -0.676506 -0.273391)             (7.04853 -0.891759 0.103998)             (6.52161 -0.771457 -0.122983)             (6.6526 0.172136 -0.225519)             (7.08732 0.311531 0.0948395)             (7.06116 -0.189441 0.309822)             (6.9774 -0.406142 0.485008)             (7.04501 0.0524634 0.450719)             (8.09381 0.586908 0.475093)             (8.25621 0.598615 0.615597)             (8.12961 0.257381 0.693403)             (8.60344 0.225243 0.793599)             (8.89912 0.175588 0.74663)             (8.76481 0.234265 0.515761)             (9.24336 0.287255 0.369566)             (9.8443 0.391454 -0.129842)             (9.1726 0.327229 -0.0673125)             (9.27034 0.510816 0.0411819)             (9.06442 0.476252 0.12495)             (9.06442 0.476252 0.12495)             (9.03072 0.41806 0.260954)             (8.8933 -0.00887579 0.153589)             (8.67444 -0.0482507 0.137642)             (8.54236 -0.178691 0.191995)             (9.14633 -0.00238781 0.160341)             (9.23557 0.145792 0.111689)             (9.21215 0.223137 0.236664)             (8.88036 0.00593892 0.114047)             (-1e+300 -1e+300 -1e+300)             (-1e+300 -1e+300 -1e+300)             (-1e+300 -1e+300 -1e+300)             (-1e+300 -1e+300 -1e+300)             (-1e+300 -1e+300 -1e+300)             (-1e+300 -1e+300 -1e+300)             (-1e+300 -1e+300 -1e+300)             (-1e+300 -1e+300 -1e+300)             (-1e+300 -1e+300 -1e+300)             (-1e+300 -1e+300 -1e+300)             (-1e+300 -1e+300 -1e+300)             (-1e+300 -1e+300 -1e+300)             (-1e+300 -1e+300 -1e+300)             (-1e+300 -1e+300 -1e+300)             (-1e+300 -1e+300 -1e+300)             (-1e+300 -1e+300 -1e+300)             (-1e+300 -1e+300 -1e+300)
         2.37             (-1e+300 -1e+300 -1e+300)             (-1e+300 -1e+300 -1e+300)             (-1e+300 -1e+300 -1e+300)             (-1e+300 -1e+300 -1e+300)             (-1e+300 -1e+300 -1e+300)             (-1e+300 -1e+300 -1e+300)             (-1e+300 -1e+300 -1e+300)             (-0.143286 0.0330087 -0.000253984)             (-0.416943 -1.01689 -1.28171)             (2.83002 -2.34205 0.851202)             (6.67687 -0.87607 -0.186636)             (7.13993 -0.440402 -0.208896)             (6.62337 -0.690914 0.000195646)             (7.12095 -0.323782 0.0644629)             (6.85981 0.16741 0.417398)             (6.85543 0.402295 0.542516)             (6.81005 0.159325 0.587366)             (7.27715 0.337096 0.477448)             (7.95238 0.601596 1.006)             (8.40838 0.518465 0.634264)             (8.50421 0.364536 0.646441)             (8.7307 0.19527 0.980394)             (9.08943 -0.0507528 0.814171)             (8.62515 0.213197 0.762737)             (8.99669 0.214914 0.495243)             (9.82223 0.269641 -0.103676)             (9.30312 0.361067 -0.0213572)             (9.31699 0.546973 0.0906876)             (9.08495 0.481458 0.136924)             (9.08495 0.481458 0.136924)             (9.01775 0.469087 0.294484)             (8.90502 0.0711638 0.18397)             (8.66839 -0.0379678 0.146761)             (8.54318 -0.214559 0.202814)             (9.15046 -0.011519 0.275293)             (9.29018 0.108518 0.230637)             (9.26261 0.269542 0.324156)             (8.92858 0.122781 0.156278)             (-1e+300 -1e+300 -1e+300)             (-1e+300 -1e+300 -1e+300)             (-1e+300 -1e+300 -1e+300)             (-1e+300 -1e+300 -1e+300)             (-1e+300 -1e+300 -1e+300)             (-1e+300 -1e+300 -1e+300)             (-1e+300 -1e+300 -1e+300)             (-1e+300 -1e+300 -1e+300)             (-1e+300 -1e+300 -1e+300)             (-1e+300 -1e+300 -1e+300)             (-1e+300 -1e+300 -1e+300)             (-1e+300 -1e+300 -1e+300)             (-1e+300 -1e+300 -1e+300)             (-1e+300 -1e+300 -1e+300)             (-1e+300 -1e+300 -1e+300)             (-1e+300 -1e+300 -1e+300)             (-1e+300 -1e+300 -1e+300)
        2.372             (-1e+300 -1e+300 -1e+300)             (-1e+300 -1e+300 -1e+300)             (-1e+300 -1e+300 -1e+300)             (-1e+300 -1e+300 -1e+300)             (-1e+300 -1e+300 -1e+300)             (-1e+300 -1e+300 -1e+300)             (-1e+300 -1e+300 -1e+300)             (-0.146263 0.000343477 -0.000148521)             (-0.036147 -0.387576 -0.72083)             (1.87719 -1.27008 -1.51593)             (6.81547 -0.577065 0.109958)             (7.13987 -0.316341 0.125624)             (7.17257 -0.488772 0.307499)             (7.12316 -0.416543 0.694112)             (7.00726 -0.433787 0.63592)             (7.19737 0.0299196 0.858009)             (6.97217 0.563121 1.04292)             (7.1558 1.00535 0.758565)             (8.07481 0.837066 1.05997)             (8.29029 0.452143 0.902473)             (8.70373 0.393399 0.76203)             (8.80211 0.117366 0.982447)             (9.08015 -0.101942 0.856602)             (8.50788 0.146726 0.870981)             (8.75229 0.142187 0.579175)             (9.71422 0.215589 -0.0367283)             (9.41219 0.444401 0.0285575)             (9.34911 0.565045 0.116274)             (9.11483 0.481019 0.136125)             (9.11483 0.481019 0.136125)             (9.00974 0.509716 0.309725)             (8.9083 0.152874 0.20074)             (8.66885 -0.0271529 0.147282)             (8.55835 -0.235871 0.207782)             (9.14049 -0.0210555 0.390273)             (9.32619 0.0544778 0.356322)             (9.30057 0.287727 0.415152)             (8.95025 0.235218 0.201991)             (-1e+300 -1e+300 -1e+300)             (-1e+300 -1e+300 -1e+300)             (-1e+300 -1e+300 -1e+300)             (-1e+300 -1e+300 -1e+300)             (-1e+300 -1e+300 -1e+300)             (-1e+300 -1e+300 -1e+300)             (-1e+300 -1e+300 -1e+300)             (-1e+300 -1e+300 -1e+300)             (-1e+300 -1e+300 -1e+300)             (-1e+300 -1e+300 -1e+300)             (-1e+300 -1e+300 -1e+300)             (-1e+300 -1e+300 -1e+300)             (-1e+300 -1e+300 -1e+300)             (-1e+300 -1e+300 -1e+300)             (-1e+300 -1e+300 -1e+300)             (-1e+300 -1e+300 -1e+300)             (-1e+300 -1e+300 -1e+300)
        2.374             (-1e+300 -1e+300 -1e+300)             (-1e+300 -1e+300 -1e+300)             (-1e+300 -1e+300 -1e+300)             (-1e+300 -1e+300 -1e+300)             (-1e+300 -1e+300 -1e+300)             (-1e+300 -1e+300 -1e+300)             (-1e+300 -1e+300 -1e+300)             (-0.146865 -0.0259564 -9.31363e-05)             (-0.91627 0.726492 -0.780461)             (2.34582 -0.119455 -1.15065)             (7.03682 -0.853244 -0.0675639)             (6.99466 -0.284948 0.164669)             (7.3998 -0.87596 0.622859)             (7.05064 -0.403835 0.430183)             (6.83552 -0.426628 0.545396)             (7.45816 -0.427879 0.573245)             (7.67142 -0.199378 0.884443)             (6.86756 1.14847 1.10419)             (8.29311 0.983311 0.609966)             (8.41339 0.51737 0.872946)             (8.70938 0.372299 0.930739)             (8.80632 -0.0831132 0.922127)             (8.99234 -0.183943 0.778584)             (8.45328 0.040794 0.80995)             (8.58532 0.0746744 0.598049)             (9.56305 0.193277 0.0427467)             (9.4826 0.516378 0.0547316)             (9.36479 0.569851 0.115022)             (9.15915 0.482449 0.12387)             (9.15915 0.482449 0.12387)             (9.01898 0.541152 0.307197)             (8.91268 0.229754 0.205212)             (8.68734 -0.0141267 0.140722)             (8.59506 -0.24023 0.208321)             (9.12802 -0.0259824 0.498431)             (9.35009 -0.00524502 0.482102)             (9.33004 0.279733 0.50306)             (8.94847 0.334812 0.244825)             (-1e+300 -1e+300 -1e+300)             (-1e+300 -1e+300 -1e+300)             (-1e+300 -1e+300 -1e+300)             (-1e+300 -1e+300 -1e+300)             (-1e+300 -1e+300 -1e+300)             (-1e+300 -1e+300 -1e+300)             (-1e+300 -1e+300 -1e+300)             (-1e+300 -1e+300 -1e+300)             (-1e+300 -1e+300 -1e+300)             (-1e+300 -1e+300 -1e+300)             (-1e+300 -1e+300 -1e+300)             (-1e+300 -1e+300 -1e+300)             (-1e+300 -1e+300 -1e+300)             (-1e+300 -1e+300 -1e+300)             (-1e+300 -1e+300 -1e+300)             (-1e+300 -1e+300 -1e+300)             (-1e+300 -1e+300 -1e+300)
        2.376             (-1e+300 -1e+300 -1e+300)             (-1e+300 -1e+300 -1e+300)             (-1e+300 -1e+300 -1e+300)             (-1e+300 -1e+300 -1e+300)             (-1e+300 -1e+300 -1e+300)             (-1e+300 -1e+300 -1e+300)             (-1e+300 -1e+300 -1e+300)             (-0.14064 -0.0483349 -8.69572e-05)             (-1.44101 1.02684 0.0337077)             (1.69679 0.888996 1.50689)             (7.5395 -1.48409 0.0610517)             (7.24907 -0.524012 0.122928)             (7.27218 -0.48094 0.688014)             (6.93109 -0.281983 0.129837)             (6.77677 0.0660526 0.132577)             (7.07793 0.189192 0.183593)             (7.19004 0.455445 0.249076)             (6.98491 0.922356 0.428103)             (8.31436 0.820486 0.291166)             (8.80293 0.522943 0.583548)             (8.74851 0.190198 0.779883)             (8.79088 -0.268641 0.839866)             (8.8538 -0.273065 0.633887)             (8.44392 -0.0616606 0.622331)             (8.52676 0.0193309 0.545013)             (9.40344 0.158898 0.117962)             (9.49283 0.523636 0.0616851)             (9.34541 0.562267 0.0977696)             (9.20151 0.492619 0.104443)             (9.20151 0.492619 0.104443)             (9.03523 0.566237 0.290017)             (8.90687 0.296799 0.200202)             (8.71324 0.00253767 0.129502)             (8.63844 -0.22702 0.206661)             (9.10452 -0.023637 0.593987)             (9.34919 -0.060424 0.600572)             (9.33505 0.252064 0.58122)             (8.90849 0.414424 0.278546)             (-1e+300 -1e+300 -1e+300)             (-1e+300 -1e+300 -1e+300)             (-1e+300 -1e+300 -1e+300)             (-1e+300 -1e+300 -1e+300)             (-1e+300 -1e+300 -1e+300)             (-1e+300 -1e+300 -1e+300)             (-1e+300 -1e+300 -1e+300)             (-1e+300 -1e+300 -1e+300)             (-1e+300 -1e+300 -1e+300)             (-1e+300 -1e+300 -1e+300)             (-1e+300 -1e+300 -1e+300)             (-1e+300 -1e+300 -1e+300)             (-1e+300 -1e+300 -1e+300)             (-1e+300 -1e+300 -1e+300)             (-1e+300 -1e+300 -1e+300)             (-1e+300 -1e+300 -1e+300)             (-1e+300 -1e+300 -1e+300)
        2.378             (-1e+300 -1e+300 -1e+300)             (-1e+300 -1e+300 -1e+300)             (-1e+300 -1e+300 -1e+300)             (-1e+300 -1e+300 -1e+300)             (-1e+300 -1e+300 -1e+300)             (-1e+300 -1e+300 -1e+300)             (-1e+300 -1e+300 -1e+300)             (-0.160339 -0.0803853 -2.77856e-05)             (-2.95274 -0.376585 0.834308)             (3.81007 -1.08222 -0.275402)             (6.50795 -0.571201 -0.177786)             (7.41387 -0.86631 0.371112)             (7.22904 -0.192301 0.848871)             (6.97004 -0.021096 0.234151)             (6.71603 0.362517 0.150885)             (6.93145 0.62678 0.329622)             (6.94165 0.721755 0.386746)             (7.40732 1.03439 -0.126755)             (8.38892 0.555416 0.265139)             (8.98968 0.202458 0.483874)             (8.83899 -0.185606 0.479219)             (8.83416 -0.342473 0.704993)             (8.66803 -0.234781 0.497447)             (8.48424 -0.118361 0.397062)             (8.60086 -0.0119362 0.442492)             (9.28607 0.0993459 0.184455)             (9.45614 0.449698 0.0722286)             (9.30144 0.542993 0.0836859)             (9.24722 0.515147 0.0829943)             (9.24722 0.515147 0.0829943)             (9.06855 0.587503 0.262745)             (8.90287 0.350931 0.188251)             (8.75734 0.0228162 0.115262)             (8.69518 -0.198429 0.204168)             (9.0842 -0.0133198 0.670619)             (9.33621 -0.102569 0.704952)             (9.32434 0.213814 0.644581)             (8.84233 0.469399 0.298251)             (-1e+300 -1e+300 -1e+300)             (-1e+300 -1e+300 -1e+300)             (-1e+300 -1e+300 -1e+300)             (-1e+300 -1e+300 -1e+300)             (-1e+300 -1e+300 -1e+300)             (-1e+300 -1e+300 -1e+300)             (-1e+300 -1e+300 -1e+300)             (-1e+300 -1e+300 -1e+300)             (-1e+300 -1e+300 -1e+300)             (-1e+300 -1e+300 -1e+300)             (-1e+300 -1e+300 -1e+300)             (-1e+300 -1e+300 -1e+300)             (-1e+300 -1e+300 -1e+300)             (-1e+300 -1e+300 -1e+300)             (-1e+300 -1e+300 -1e+300)             (-1e+300 -1e+300 -1e+300)             (-1e+300 -1e+300 -1e+300)
         2.38             (-1e+300 -1e+300 -1e+300)             (-1e+300 -1e+300 -1e+300)             (-1e+300 -1e+300 -1e+300)             (-1e+300 -1e+300 -1e+300)             (-1e+300 -1e+300 -1e+300)             (-1e+300 -1e+300 -1e+300)             (-1e+300 -1e+300 -1e+300)             (-0.231302 -0.0113248 -0.000277661)             (-3.64913 -0.345091 1.79337)             (5.77092 -2.02086 -0.102892)             (6.26588 1.02462 0.798388)             (7.12612 -0.507408 0.39996)             (7.0408 0.236744 0.407547)             (7.01131 0.264804 0.302884)             (6.65195 0.6243 0.166977)             (7.03025 0.563254 0.436241)             (6.93002 0.653106 0.425603)             (7.28579 1.43285 -0.0253228)             (8.58768 0.203485 0.369981)             (8.91253 -0.247944 0.443965)             (8.9172 -0.444877 0.394018)             (8.80054 -0.339217 0.537681)             (8.5314 -0.0988047 0.388134)             (8.59132 -0.118001 0.221794)             (8.79147 -0.0147653 0.330697)             (9.23494 0.0328146 0.240003)             (9.38434 0.319775 0.104172)             (9.24135 0.51706 0.0912622)             (9.29169 0.550144 0.0658011)             (9.29169 0.550144 0.0658011)             (9.11782 0.607584 0.231198)             (8.90353 0.391464 0.171478)             (8.82019 0.0460365 0.0995468)             (8.76321 -0.158081 0.201758)             (9.07288 0.00457937 0.724392)             (9.31683 -0.127229 0.789256)             (9.30017 0.175228 0.688136)             (8.75608 0.49844 0.300648)             (-1e+300 -1e+300 -1e+300)             (-1e+300 -1e+300 -1e+300)             (-1e+300 -1e+300 -1e+300)             (-1e+300 -1e+300 -1e+300)             (-1e+300 -1e+300 -1e+300)             (-1e+300 -1e+300 -1e+300)             (-1e+300 -1e+300 -1e+300)             (-1e+300 -1e+300 -1e+300)             (-1e+300 -1e+300 -1e+300)             (-1e+300 -1e+300 -1e+300)             (-1e+300 -1e+300 -1e+300)             (-1e+300 -1e+300 -1e+300)             (-1e+300 -1e+300 -1e+300)             (-1e+300 -1e+300 -1e+300)             (-1e+300 -1e+300 -1e+300)             (-1e+300 -1e+300 -1e+300)             (-1e+300 -1e+300 -1e+300)
        2.382             (-1e+300 -1e+300 -1e+300)             (-1e+300 -1e+300 -1e+300)             (-1e+300 -1e+300 -1e+300)             (-1e+300 -1e+300 -1e+300)             (-1e+300 -1e+300 -1e+300)             (-1e+300 -1e+300 -1e+300)             (-1e+300 -1e+300 -1e+300)             (-0.225322 0.134121 0.000115275)             (-1.20495 -0.923953 1.86531)             (3.36874 -1.14297 -0.0500456)             (6.53204 -0.246238 -0.734606)             (6.84893 -0.0718231 0.21207)             (7.02157 0.446284 -0.119819)             (6.87819 0.714332 0.15641)             (6.6597 0.868044 0.283233)             (6.97161 0.747933 0.589167)             (6.93998 0.964988 0.634551)             (7.00813 1.55023 0.00428613)             (8.7207 0.0717576 0.413571)             (8.82715 -0.352553 0.300642)             (8.92877 -0.37931 0.422998)             (8.59182 -0.27844 0.345135)             (8.50618 -0.0102184 0.313583)             (8.77872 -0.0839975 0.148965)             (9.04481 -0.00944427 0.243528)             (9.25048 -0.0145913 0.277686)             (9.29657 0.181947 0.156749)             (9.17683 0.490908 0.128026)             (9.32851 0.591625 0.0593502)             (9.32851 0.591625 0.0593502)             (9.17926 0.62584 0.200895)             (8.91098 0.417607 0.151175)             (8.9002 0.0689306 0.0835692)             (8.83887 -0.113319 0.198706)             (9.07508 0.0262331 0.751574)             (9.2959 -0.134298 0.84825)             (9.2659 0.144075 0.708969)             (8.65686 0.502039 0.284693)             (-1e+300 -1e+300 -1e+300)             (-1e+300 -1e+300 -1e+300)             (-1e+300 -1e+300 -1e+300)             (-1e+300 -1e+300 -1e+300)             (-1e+300 -1e+300 -1e+300)             (-1e+300 -1e+300 -1e+300)             (-1e+300 -1e+300 -1e+300)             (-1e+300 -1e+300 -1e+300)             (-1e+300 -1e+300 -1e+300)             (-1e+300 -1e+300 -1e+300)             (-1e+300 -1e+300 -1e+300)             (-1e+300 -1e+300 -1e+300)             (-1e+300 -1e+300 -1e+300)             (-1e+300 -1e+300 -1e+300)             (-1e+300 -1e+300 -1e+300)             (-1e+300 -1e+300 -1e+300)             (-1e+300 -1e+300 -1e+300)
        2.384             (-1e+300 -1e+300 -1e+300)             (-1e+300 -1e+300 -1e+300)             (-1e+300 -1e+300 -1e+300)             (-1e+300 -1e+300 -1e+300)             (-1e+300 -1e+300 -1e+300)             (-1e+300 -1e+300 -1e+300)             (-1e+300 -1e+300 -1e+300)             (-0.174568 0.0485428 0.00034606)             (0.202056 -0.877656 1.42402)             (5.60307 -0.813354 -1.27522)             (7.01833 -1.11565 -0.29825)             (6.79804 -0.0992582 -0.0778915)             (7.06451 0.612526 0.136854)             (6.84329 1.0317 0.459682)             (6.79193 0.952058 0.559333)             (7.064 0.833939 0.651752)             (7.02952 0.833261 0.656704)             (7.07411 1.0423 0.101839)             (8.71973 0.20253 0.408543)             (8.80666 -0.151192 0.163771)             (8.75945 -0.223809 0.255294)             (8.38046 -0.15987 0.168927)             (8.59668 -0.0984145 0.248614)             (9.02076 -0.0614141 0.169718)             (9.28377 -0.0344671 0.191915)             (9.31283 -0.0271042 0.292961)             (9.21965 0.0853128 0.215024)             (9.12228 0.469434 0.188322)             (9.35354 0.629782 0.0708308)             (9.35354 0.629782 0.0708308)             (9.24995 0.639825 0.177521)             (8.92929 0.42933 0.128567)             (8.99688 0.0872163 0.0685161)             (8.9219 -0.0728307 0.193807)             (9.09635 0.0464986 0.751212)             (9.28101 -0.127459 0.878478)             (9.22807 0.124748 0.705714)             (8.55408 0.48268 0.251463)             (-1e+300 -1e+300 -1e+300)             (-1e+300 -1e+300 -1e+300)             (-1e+300 -1e+300 -1e+300)             (-1e+300 -1e+300 -1e+300)             (-1e+300 -1e+300 -1e+300)             (-1e+300 -1e+300 -1e+300)             (-1e+300 -1e+300 -1e+300)             (-1e+300 -1e+300 -1e+300)             (-1e+300 -1e+300 -1e+300)             (-1e+300 -1e+300 -1e+300)             (-1e+300 -1e+300 -1e+300)             (-1e+300 -1e+300 -1e+300)             (-1e+300 -1e+300 -1e+300)             (-1e+300 -1e+300 -1e+300)             (-1e+300 -1e+300 -1e+300)             (-1e+300 -1e+300 -1e+300)             (-1e+300 -1e+300 -1e+300)