# Probe 0 (-0.35 0 0.005)
# Probe 1 (-0.35 0 0.0155)
# Probe 2 (-0.35 0 0.02653)
# Probe 3 (-0.35 0 0.0381)
# Probe 4 (-0.35 0 0.05026)
# Probe 5 (-0.35 0 0.06302)
# Probe 6 (-0.35 0 0.07642)
# Probe 7 (-0.35 0 0.08)
# Probe 8 (-0.35 0 0.09049)
# Probe 9 (-0.35 0 0.10527)
# Probe 10 (-0.35 0 0.12078)
# Probe 11 (-0.35 0 0.13707)
# Probe 12 (-0.35 0 0.15417)
# Probe 13 (-0.35 0 0.17213)
# Probe 14 (-0.35 0 0.19099)
# Probe 15 (-0.35 0 0.2)
# Probe 16 (-0.35 0 0.21079)
# Probe 17 (-0.35 0 0.23157)
# Probe 18 (-0.35 0 0.2534)
# Probe 19 (-0.35 0 0.27632)
# Probe 20 (-0.35 0 0.30039)
# Probe 21 (-0.35 0 0.32566)
# Probe 22 (-0.35 0 0.35219)
# Probe 23 (-0.35 0 0.38005)
# Probe 24 (-0.35 0 0.4093)
# Probe 25 (-0.35 0 0.44002)
# Probe 26 (-0.35 0 0.47227)
# Probe 27 (-0.35 0 0.50613)
# Probe 28 (-0.35 0 0.54169)
# Probe 29 (-0.35 0 0.57903)
# Probe 30 (-0.35 0 0.61823)
# Probe 31 (-0.35 0 0.65939)
# Probe 32 (-0.35 0 0.70261)
# Probe 33 (-0.35 0 0.74799)
# Probe 34 (-0.35 0 0.79564)
# Probe 35 (-0.35 0 0.84567)
# Probe 36 (-0.35 0 0.8982)
# Probe 37 (-0.35 0 0.95336)
# Probe 38 (-0.35 0 1.01128)
# Probe 39 (-0.35 0 1.0721)
# Probe 40 (-0.35 0 1.13595)
# Probe 41 (-0.35 0 1.203)
# Probe 42 (-0.35 0 1.2734)
# Probe 43 (-0.35 0 1.34732)
# Probe 44 (-0.35 0 1.42493)
# Probe 45 (-0.35 0 1.50643)
# Probe 46 (-0.35 0 1.592)
# Probe 47 (-0.35 0 1.68185)
# Probe 48 (-0.35 0 1.77619)
# Probe 49 (-0.35 0 1.87525)
# Probe 50 (-0.35 0 1.97927)
# Probe 51 (-0.35 0 2.08848)
# Probe 52 (-0.35 0 2.20315)
# Probe 53 (-0.35 0 2.32356)
# Probe 54 (-0.35 0 2.44999)
#       Probe             0             1             2             3             4             5             6             7             8             9            10            11            12            13            14            15            16            17            18            19            20            21            22            23            24            25            26            27            28            29            30            31            32            33            34            35            36            37            38            39            40            41            42            43            44            45            46            47            48            49            50            51            52            53            54
#        Time
        7.322       9.34189       8.74416       8.32379       8.23591       8.32458       8.38734       8.28266       8.21623       8.05279       7.78092       7.52072       7.26482       7.19906       6.86311       6.71858        6.7489        6.8228       6.88347       6.86892       6.81479       6.80743       6.71739       6.62293       6.77578       6.69839       6.83515       6.96051       7.06937       7.21347       7.21347       7.32206       7.47321       7.59709       7.66401       7.62472       7.60269       7.65803       7.72563       -1e+300       -1e+300       -1e+300       -1e+300       -1e+300       -1e+300       -1e+300       -1e+300       -1e+300       -1e+300       -1e+300       -1e+300       -1e+300       -1e+300       -1e+300       -1e+300       -1e+300
        7.324      -1.26852      -1.39084      -1.62513      -1.71058      -1.70918      -1.93581      -2.11458      -2.19959      -2.36938      -2.60156      -2.82297       -3.0746      -3.27686      -3.55314      -3.59276      -3.55574      -3.59934      -3.63027      -3.72215      -3.69701      -3.70833      -3.77266      -3.93315      -3.78926      -3.88461      -3.80778      -3.70728      -3.62082      -3.43464      -3.43464      -3.35185      -3.21295      -3.15511      -3.12388      -3.18274      -3.21778      -3.17881      -3.11733       -1e+300       -1e+300       -1e+300       -1e+300       -1e+300       -1e+300       -1e+300       -1e+300       -1e+300       -1e+300       -1e+300       -1e+300       -1e+300       -1e+300       -1e+300       -1e+300       -1e+300
        7.326       7.27141        7.2245        7.0162       7.05009        6.9311       6.53085       6.34392       6.23629       6.06721         5.961       5.77063       5.53127       5.31452       5.13539       5.11354        5.1126         5.056       4.92248       4.90847       4.89378       4.90494       4.90019       4.73252       4.92792       4.87063        4.9554        5.0611        5.1978       5.40953       5.40953       5.51204       5.67852        5.7772        5.8201       5.83553       5.83352       5.89066       5.96046       -1e+300       -1e+300       -1e+300       -1e+300       -1e+300       -1e+300       -1e+300       -1e+300       -1e+300       -1e+300       -1e+300       -1e+300       -1e+300       -1e+300       -1e+300       -1e+300       -1e+300
        7.328       22.5933       22.6153       22.3926       22.3812       22.2538       21.9975       21.7842       21.6732       21.5299       21.4942       21.3687       21.1751       20.9754       20.8195       20.7586       20.7131       20.6672       20.5722       20.4901       20.5347       20.5792       20.6496       20.5194       20.7537       20.7354       20.8361       20.9523       21.1507       21.3527       21.3527       21.4862       21.7103       21.8222       21.8961       21.9859       22.0207       22.1015       22.1765       -1e+300       -1e+300       -1e+300       -1e+300       -1e+300       -1e+300       -1e+300       -1e+300       -1e+300       -1e+300       -1e+300       -1e+300       -1e+300       -1e+300       -1e+300       -1e+300       -1e+300
         7.33       15.4342       15.5069       15.2661       15.2223       15.1648       14.8796        14.657       14.5928       14.5108       14.4249       14.3192       14.1289       13.9502        13.812       13.7031       13.6306       13.5947       13.4929       13.3951       13.4155       13.4495       13.4885       13.4387       13.5655       13.5597       13.6006       13.6796       13.8475       14.0277       14.0277       14.1433       14.3358       14.3869       14.4338       14.4629       14.4755       14.5536       14.6077       -1e+300       -1e+300       -1e+300       -1e+300       -1e+300       -1e+300       -1e+300       -1e+300       -1e+300       -1e+300       -1e+300       -1e+300       -1e+300       -1e+300       -1e+300       -1e+300       -1e+300
        7.332        15.216       15.2259       15.1297       15.0373        14.947       14.5244       14.3992          14.4       14.3241       14.1665       14.0658       13.8548       13.7488       13.6232       13.4975       13.4095       13.3604       13.2669       13.2497       13.2027       13.2101        13.246       13.2963       13.3514       13.3712       13.4139       13.4842       13.6698       13.8466       13.8466       13.9608       14.1604       14.1766       14.2604       14.3036       14.3326        14.431       14.4715       -1e+300       -1e+300       -1e+300       -1e+300       -1e+300       -1e+300       -1e+300       -1e+300       -1e+300       -1e+300       -1e+300       -1e+300       -1e+300       -1e+300       -1e+300       -1e+300       -1e+300
        7.334       13.7891       13.6869       13.5966       13.4816       13.4356       12.9221       12.8823        12.888       12.7554       12.6014       12.5607       12.3626       12.2317       12.0852       11.9649       11.9058       11.8542       11.7443       11.7245       11.6912       11.6547       11.6482       11.7727       11.8172       11.8519       11.9075       11.9728       12.1706       12.3469       12.3469       12.4277       12.6412       12.6155       12.7436       12.7893       12.8223       12.9479       12.9818       -1e+300       -1e+300       -1e+300       -1e+300       -1e+300       -1e+300       -1e+300       -1e+300       -1e+300       -1e+300       -1e+300       -1e+300       -1e+300       -1e+300       -1e+300       -1e+300       -1e+300
        7.336       3.20579       2.98294       2.67783       2.62054        2.5565       2.21481       2.16282       2.15269       2.03775       1.91678       1.81721       1.68084       1.55333       1.42509        1.3689       1.28458       1.20804       1.06073      0.939235      0.923695      0.850313      0.767231      0.879987      0.885253       0.90793      0.933695      0.977081       1.13169       1.26693       1.26693       1.32367       1.47894       1.39535       1.56401       1.46975       1.48988       1.58076       1.59691       -1e+300       -1e+300       -1e+300       -1e+300       -1e+300       -1e+300       -1e+300       -1e+300       -1e+300       -1e+300       -1e+300       -1e+300       -1e+300       -1e+300       -1e+300       -1e+300       -1e+300
        7.338       6.59383       6.14373       5.83385       5.61215       5.46926       5.39273       5.43868       5.44809       5.38583       5.27403       5.15169       5.08862       4.90367       4.78642         4.751       4.68394       4.60177       4.46111       4.33078       4.30496       4.24979       4.10477       4.21449       4.27556       4.30905       4.35903       4.41987       4.59547       4.69886       4.69886       4.78921       4.94411       4.81475       5.07821       4.97515       5.02957       5.12987       5.12916       -1e+300       -1e+300       -1e+300       -1e+300       -1e+300       -1e+300       -1e+300       -1e+300       -1e+300       -1e+300       -1e+300       -1e+300       -1e+300       -1e+300       -1e+300       -1e+300       -1e+300
         7.34       12.9013       12.3107       12.1491       11.6735       11.3251        11.382       11.6448       11.6576       11.5884       11.5488       11.4679       11.4143       11.1958       11.0557       11.0041       10.9498       10.8847       10.7712       10.6716       10.6307        10.588       10.4822       10.5714       10.6936       10.7456       10.8414       10.9342        11.159       11.2992       11.2992       11.3976       11.5677       11.5006       11.8082       11.7241       11.8447       11.9603       11.9873       -1e+300       -1e+300       -1e+300       -1e+300       -1e+300       -1e+300       -1e+300       -1e+300       -1e+300       -1e+300       -1e+300       -1e+300       -1e+300       -1e+300       -1e+300       -1e+300       -1e+300
        7.342       3.43005       2.88493       2.79123         2.353        2.0805       1.99465       2.27831       2.23032       2.04115       1.89546       1.77228       1.69739       1.51647       1.36782       1.26372       1.20857       1.14691       1.01749      0.906693      0.824737      0.727567      0.687702       0.72993      0.761484      0.784574      0.818755      0.884642       1.04941       1.18371       1.18371       1.14993       1.22987       1.08175       1.41076       1.22782       1.30689       1.38039        1.3845       -1e+300       -1e+300       -1e+300       -1e+300       -1e+300       -1e+300       -1e+300       -1e+300       -1e+300       -1e+300       -1e+300       -1e+300       -1e+300       -1e+300       -1e+300       -1e+300       -1e+300
        7.344       6.64254       6.27277        6.1546       5.83686       5.75164       5.46216       5.84207       5.64454       5.24974        4.9644       4.79767        4.6685       4.54162       4.39452       4.28335       4.23562         4.172       4.03936        3.9514       3.83308        3.6798       3.75776       3.78608       3.77125       3.78699       3.79345       3.84488       3.98691       4.09407       4.09407       4.08405       4.12874       3.95289       4.32887         4.094       4.21802       4.27247       4.27013       -1e+300       -1e+300       -1e+300       -1e+300       -1e+300       -1e+300       -1e+300       -1e+300       -1e+300       -1e+300       -1e+300       -1e+300       -1e+300       -1e+300       -1e+300       -1e+300       -1e+300
        7.346       8.14954       8.05538       7.88545       7.50002       7.46519       7.21929       7.32205       7.08325       6.77069       6.45778       6.26335       6.01433       5.99417       5.86229       5.77962       5.72296       5.66736        5.5475       5.48698       5.35139       5.15936       5.32932       5.35736       5.32036       5.33912       5.33102       5.36924       5.49739       5.62841       5.62841       5.64641       5.68438       5.54608        5.9143        5.7158       5.87748       5.92793       5.94788       -1e+300       -1e+300       -1e+300       -1e+300       -1e+300       -1e+300       -1e+300       -1e+300       -1e+300       -1e+300       -1e+300       -1e+300       -1e+300       -1e+300       -1e+300       -1e+300       -1e+300
        7.348        4.4232       4.43265       4.00185       3.84595       3.76777       3.23711       3.16626       3.08812       2.86307       2.55661       2.40179       2.14021       2.13826       2.04066       1.95121       1.88054       1.81602       1.70542        1.6515        1.5439       1.29662       1.48477         1.544       1.46107       1.47409       1.42323       1.43438       1.52244       1.68098       1.68098       1.68698       1.69564       1.55404       1.92842       1.69249       1.89826       1.93434       1.95481       -1e+300       -1e+300       -1e+300       -1e+300       -1e+300       -1e+300       -1e+300       -1e+300       -1e+300       -1e+300       -1e+300       -1e+300       -1e+300       -1e+300       -1e+300       -1e+300       -1e+300
         7.35       11.8196       11.6539       11.1506       11.1303       10.8562       10.3938        10.256       10.2327       10.0945       9.80226       9.68521        9.5528       9.49437       9.40136        9.2807        9.2149       9.15936       9.06796       9.02163       8.93804       8.72601       8.86659       9.01907       8.93463        8.9597       8.89452       8.89653       8.96982       9.13677       9.13677       9.19456       9.21834        9.1023       9.50053        9.2952       9.57526          9.61       9.64099       -1e+300       -1e+300       -1e+300       -1e+300       -1e+300       -1e+300       -1e+300       -1e+300       -1e+300       -1e+300       -1e+300       -1e+300       -1e+300       -1e+300       -1e+300       -1e+300       -1e+300
        7.352       11.4471       11.2773       10.9141       10.7337       10.5434       10.1519       9.99436       9.99708       9.86786        9.6485       9.57397       9.49024       9.38895       9.25232       9.12006       9.08078         9.042       8.97303       8.93723       8.79467       8.65208       8.67017       8.92912       8.80997        8.8332       8.73622       8.72233       8.74772       8.91309       8.91309       8.97041       9.00821       8.91283       9.28643       9.08401       9.37781       9.42582       9.47065       -1e+300       -1e+300       -1e+300       -1e+300       -1e+300       -1e+300       -1e+300       -1e+300       -1e+300       -1e+300       -1e+300       -1e+300       -1e+300       -1e+300       -1e+300       -1e+300       -1e+300
        7.354       6.53827       6.46647       6.11714       5.97569       5.83716       5.47994       5.30343       5.28381       5.15737       5.00075       4.90336       4.81524       4.67154       4.47675       4.40139       4.40264       4.37383       4.28882       4.28315       4.00669       3.93799        3.8263       4.15209       3.99446       4.00106       3.85302       3.81979       3.77471       3.94986       3.94986        3.9505       3.96349       3.84622       4.15892       3.92792        4.2096       4.25292       4.28976       -1e+300       -1e+300       -1e+300       -1e+300       -1e+300       -1e+300       -1e+300       -1e+300       -1e+300       -1e+300       -1e+300       -1e+300       -1e+300       -1e+300       -1e+300       -1e+300       -1e+300
        7.356       5.43714       5.35566       5.03932       4.90664       4.78476       4.52084       4.36808       4.30732       4.16768       4.05299       3.92171       3.81653       3.63801       3.45511       3.48568       3.47259       3.38912       3.29002       3.30072       2.98472       2.93489       2.77328       3.04244        2.9289       2.93254       2.75663       2.72522       2.63025       2.78027       2.78027       2.83181       2.85962       2.72543       3.02499       2.80566       3.08541       3.14955       3.18542       -1e+300       -1e+300       -1e+300       -1e+300       -1e+300       -1e+300       -1e+300       -1e+300       -1e+300       -1e+300       -1e+300       -1e+300       -1e+300       -1e+300       -1e+300       -1e+300       -1e+300
        7.358       10.5584       10.4232       10.1929       9.98009       9.81304       9.64747       9.56576       9.50421        9.3575       9.23411       9.07943       9.00049       8.82469       8.65907       8.68267       8.57947       8.46958       8.41272       8.39158       8.18953       8.11375       7.96516       8.13594       8.10153       8.10615       7.93741       7.92116       7.80408       7.96892       7.96892       7.98127        8.0616       7.95102        8.1763       8.05127       8.30006       8.39744       8.42136       -1e+300       -1e+300       -1e+300       -1e+300       -1e+300       -1e+300       -1e+300       -1e+300       -1e+300       -1e+300       -1e+300       -1e+300       -1e+300       -1e+300       -1e+300       -1e+300       -1e+300
         7.36        17.453       17.3194         17.11       16.8927       16.6924       16.5442       16.4688       16.4219       16.2938       16.1233       16.0001       15.9154       15.7388       15.5624       15.4866         15.39       15.3303       15.3117       15.2454       15.1522       15.0484       14.9296       15.0602       15.0984       15.0878       14.9383       14.9606       14.8669       15.0145       15.0145       15.0283       15.1422       15.1119       15.2506       15.2328        15.429       15.5803       15.6352       -1e+300       -1e+300       -1e+300       -1e+300       -1e+300       -1e+300       -1e+300       -1e+300       -1e+300       -1e+300       -1e+300       -1e+300       -1e+300       -1e+300       -1e+300       -1e+300       -1e+300
        7.362       13.5918       13.3937       13.1317       13.0108       12.8918       12.6164        12.492       12.4364       12.3286       12.1354       12.0332       11.8726       11.7159       11.4994       11.3823       11.3535        11.303       11.2943       11.2234       11.1171       10.9697       10.8164       10.9411       10.9266       10.9137       10.7773       10.8079       10.6939       10.8183       10.8183       10.8357       10.9534       10.8968       10.9864       10.9774       11.1164       11.2683       11.3108       -1e+300       -1e+300       -1e+300       -1e+300       -1e+300       -1e+300       -1e+300       -1e+300       -1e+300       -1e+300       -1e+300       -1e+300       -1e+300       -1e+300       -1e+300       -1e+300       -1e+300
        7.364       3.55802       3.28999       2.96815       2.93228       2.81205       2.43457       2.32517       2.27165       2.17685       1.99745       1.85141       1.63668       1.47339       1.30562       1.18835       1.10766       1.01345        1.0065       1.01627      0.844434      0.681622      0.451461      0.550259      0.470775      0.440855      0.287406      0.308273       0.17335      0.274771      0.274771      0.261789      0.341138      0.282292      0.310706      0.269671      0.353411      0.502375      0.475631       -1e+300       -1e+300       -1e+300       -1e+300       -1e+300       -1e+300       -1e+300       -1e+300       -1e+300       -1e+300       -1e+300       -1e+300       -1e+300       -1e+300       -1e+300       -1e+300       -1e+300
        7.366       2.53664        2.2181       1.92854       1.89022        1.7732       1.44235       1.32038       1.26891       1.18747       1.00595      0.817073      0.567091      0.408879      0.224314     0.0974365     0.0161437    -0.0388079     -0.120795    -0.0906675     -0.220848     -0.348033     -0.621458     -0.570309     -0.621345     -0.629441     -0.760865     -0.725332     -0.905115     -0.723053     -0.723053     -0.755401     -0.687718     -0.736139     -0.727276     -0.720492     -0.678872     -0.497344     -0.627115       -1e+300       -1e+300       -1e+300       -1e+300       -1e+300       -1e+300       -1e+300       -1e+300       -1e+300       -1e+300       -1e+300       -1e+300       -1e+300       -1e+300       -1e+300       -1e+300       -1e+300
        7.368       8.36586       8.01371       7.78054       7.74335       7.63742       7.31989       7.18246       7.11233       7.01442       6.84474       6.66857       6.39812       6.19289       6.00006       5.83908        5.7917       5.76098       5.67501       5.70233       5.59338       5.47203        5.2348       5.19742       5.23032       5.23709       5.15023       5.17685        5.1477       5.25216       5.25216       5.18765       5.25321       5.24484       5.23969       5.28693       5.28838       5.46993       5.28016       -1e+300       -1e+300       -1e+300       -1e+300       -1e+300       -1e+300       -1e+300       -1e+300       -1e+300       -1e+300       -1e+300       -1e+300       -1e+300       -1e+300       -1e+300       -1e+300       -1e+300
         7.37       2.88831       2.63182       2.33631        2.3508       2.25889       1.96161       1.78546         1.686       1.50433       1.37772       1.25449       1.02044      0.721638      0.529645      0.369736      0.225075     0.0968916     0.0564629     0.0807553     0.0175054     -0.135187     -0.330103     -0.465757     -0.426948     -0.437056     -0.529019     -0.535116     -0.565188     -0.432367     -0.432367     -0.590914     -0.593482     -0.619628     -0.679574      -0.70761     -0.767664      -0.61174      -0.90366       -1e+300       -1e+300       -1e+300       -1e+300       -1e+300       -1e+300       -1e+300       -1e+300       -1e+300       -1e+300       -1e+300       -1e+300       -1e+300       -1e+300       -1e+300       -1e+300       -1e+300
        7.372       4.47942       4.17814       3.96664       3.98151       3.89101       3.64813       3.47342       3.35332        3.0944       2.91651       2.84905       2.68378       2.42038       2.10533       1.86434       1.68096       1.63938       1.61801       1.60724       1.55905       1.43769       1.27887       1.10849       1.18588       1.17177       1.11295       1.09884       1.08939       1.27297       1.27297       1.08334       1.05454       1.05053      0.970577      0.973425      0.888681       1.04819      0.674084       -1e+300       -1e+300       -1e+300       -1e+300       -1e+300       -1e+300       -1e+300       -1e+300       -1e+300       -1e+300       -1e+300       -1e+300       -1e+300       -1e+300       -1e+300       -1e+300       -1e+300
        7.374       11.3154       10.9957       10.7992       10.7743       10.6808        10.511       10.3892        10.284       10.0256       9.70694       9.62772       9.59319       9.36246       9.06917       8.82423       8.73071       8.70269       8.57312       8.40541       8.35071       8.29225       8.17448       8.01929       8.13094       8.11956       8.11442       8.09196       8.10877       8.30251       8.30251       8.19645       8.13022       8.17914       8.10859       8.13797       8.07001       8.19376       7.85473       -1e+300       -1e+300       -1e+300       -1e+300       -1e+300       -1e+300       -1e+300       -1e+300       -1e+300       -1e+300       -1e+300       -1e+300       -1e+300       -1e+300       -1e+300       -1e+300       -1e+300
        7.376       7.75206       7.53736       7.32381        7.3056       7.20712       7.02622       6.93117       6.86834       6.67469       6.30845       6.10536       6.10508       5.97921       5.70053       5.50273       5.36759       5.27227       5.08694       4.91517       4.75984       4.71605       4.66038       4.51519       4.58717       4.56496       4.56872       4.52486       4.52266       4.78477       4.78477         4.631       4.50574       4.56576       4.50061       4.51821       4.45354       4.54994       4.27823       -1e+300       -1e+300       -1e+300       -1e+300       -1e+300       -1e+300       -1e+300       -1e+300       -1e+300       -1e+300       -1e+300       -1e+300       -1e+300       -1e+300       -1e+300       -1e+300       -1e+300
        7.378       18.2816       18.2259       18.0706       18.0589       17.9865       17.7511       17.6764       17.6528       17.4917       17.1701       16.9547       16.8768       16.7562       16.5276       16.3093       16.1861       16.0975       15.8916        15.681       15.5318       15.4845       15.5389       15.4539       15.5543       15.5523       15.6253        15.589        15.618       15.9146       15.9146        15.789       15.5459       15.7266       15.7184       15.8094       15.7824       15.8727       15.7028       -1e+300       -1e+300       -1e+300       -1e+300       -1e+300       -1e+300       -1e+300       -1e+300       -1e+300       -1e+300       -1e+300       -1e+300       -1e+300       -1e+300       -1e+300       -1e+300       -1e+300
         7.38       17.3652       17.3441       17.1978       17.2068       17.1376       16.8996       16.7982       16.7516       16.6165       16.3641       16.2321       16.1631       16.0012       15.7262       15.5589       15.4581       15.2915       14.9557       14.7523        14.622        14.563       14.6789       14.6024       14.6868       14.6597       14.7489       14.6929       14.6783       14.9108       14.9108       14.7334       14.6384       14.7624       14.7566       14.8176       14.8113       14.8573        14.838       -1e+300       -1e+300       -1e+300       -1e+300       -1e+300       -1e+300       -1e+300       -1e+300       -1e+300       -1e+300       -1e+300       -1e+300       -1e+300       -1e+300       -1e+300       -1e+300       -1e+300
        7.382       2.74209       2.70951       2.62411       2.59214       2.50147       2.15753       1.99374       1.91969       1.85368       1.71887       1.69973       1.56083       1.40406       1.12158       0.94527      0.766712      0.553215      0.105766     0.0105998     -0.268997     -0.302433     -0.212784      -0.34755     -0.368614     -0.389445     -0.350545     -0.464287      -0.57303     -0.404621     -0.404621     -0.565275     -0.723838     -0.621493     -0.665795      -0.69114     -0.722355     -0.725934     -0.631896       -1e+300       -1e+300       -1e+300       -1e+300       -1e+300       -1e+300       -1e+300       -1e+300       -1e+300       -1e+300       -1e+300       -1e+300       -1e+300       -1e+300       -1e+300       -1e+300       -1e+300
        7.384      0.773297      0.876776       0.65867      0.592859        0.4529     0.0431097     -0.190094     -0.212966     -0.133669     -0.215753     -0.238132     -0.429812     -0.641927        -1.006       -1.1782      -1.34627       -1.5239      -2.06215      -1.92521      -2.27147      -2.30057      -2.27789      -2.42443      -2.43405        -2.437      -2.40199      -2.50656      -2.62582      -2.54053      -2.54053      -2.68254      -2.77954      -2.63822      -2.65526      -2.66455      -2.67296      -2.71457       -2.4127       -1e+300       -1e+300       -1e+300       -1e+300       -1e+300       -1e+300       -1e+300       -1e+300       -1e+300       -1e+300       -1e+300       -1e+300       -1e+300       -1e+300       -1e+300       -1e+300       -1e+300
        7.386        2.4252       2.52646       2.34544        2.3021       2.14964       1.82519        1.6545       1.62137        1.5906       1.52945       1.43746       1.26434       1.03368      0.582397      0.499966      0.310645      0.239025     -0.374554     -0.111709     -0.414981     -0.440317     -0.517002      -0.60752     -0.596017     -0.575825     -0.501584     -0.582734     -0.669589     -0.637315     -0.637315     -0.771269     -0.744088     -0.569624     -0.512984     -0.457937     -0.424859     -0.479148    -0.0786258       -1e+300       -1e+300       -1e+300       -1e+300       -1e+300       -1e+300       -1e+300       -1e+300       -1e+300       -1e+300       -1e+300       -1e+300       -1e+300       -1e+300       -1e+300       -1e+300       -1e+300
        7.388        7.2914       7.37125       7.30545       7.25671       7.10618       6.77384       6.70926       6.67872       6.54457       6.47599       6.37051       6.18815       5.97124       5.58444       5.47401       5.28885        5.2754       4.56996       5.02642       4.67199       4.59118       4.45087        4.4119       4.41582       4.43901       4.51611       4.44514       4.35043       4.30788       4.30788       4.11445       4.25905       4.42198       4.49966         4.586       4.62934       4.54872       4.99223       -1e+300       -1e+300       -1e+300       -1e+300       -1e+300       -1e+300       -1e+300       -1e+300       -1e+300       -1e+300       -1e+300       -1e+300       -1e+300       -1e+300       -1e+300       -1e+300       -1e+300
         7.39       14.3966       14.4874       14.3951        14.332       14.2001       13.9649       13.8389       13.7698       13.6805       13.5848       13.4744       13.2881       13.0166       12.8748       12.6595       12.4928       12.4543       11.8528       12.2482        11.902       11.7803       11.6472       11.6488       11.6653       11.6935        11.792       11.7322       11.6562       11.5485       11.5485       11.3375       11.5526       11.7811       11.8927       12.0333       12.0647       12.0616       12.4546       -1e+300       -1e+300       -1e+300       -1e+300       -1e+300       -1e+300       -1e+300       -1e+300       -1e+300       -1e+300       -1e+300       -1e+300       -1e+300       -1e+300       -1e+300       -1e+300       -1e+300