# Probe 0 (-0.35 0 0.005)
# Probe 1 (-0.35 0 0.0155)
# Probe 2 (-0.35 0 0.02653)
# Probe 3 (-0.35 0 0.0381)
# Probe 4 (-0.35 0 0.05026)
# Probe 5 (-0.35 0 0.06302)
# Probe 6 (-0.35 0 0.07642)
# Probe 7 (-0.35 0 0.08)
# Probe 8 (-0.35 0 0.09049)
# Probe 9 (-0.35 0 0.10527)
# Probe 10 (-0.35 0 0.12078)
# Probe 11 (-0.35 0 0.13707)
# Probe 12 (-0.35 0 0.15417)
# Probe 13 (-0.35 0 0.17213)
# Probe 14 (-0.35 0 0.19099)
# Probe 15 (-0.35 0 0.2)
# Probe 16 (-0.35 0 0.21079)
# Probe 17 (-0.35 0 0.23157)
# Probe 18 (-0.35 0 0.2534)
# Probe 19 (-0.35 0 0.27632)
# Probe 20 (-0.35 0 0.30039)
# Probe 21 (-0.35 0 0.32566)
# Probe 22 (-0.35 0 0.35219)
# Probe 23 (-0.35 0 0.38005)
# Probe 24 (-0.35 0 0.4093)
# Probe 25 (-0.35 0 0.44002)
# Probe 26 (-0.35 0 0.47227)
# Probe 27 (-0.35 0 0.50613)
# Probe 28 (-0.35 0 0.54169)
# Probe 29 (-0.35 0 0.57903)
# Probe 30 (-0.35 0 0.61823)
# Probe 31 (-0.35 0 0.65939)
# Probe 32 (-0.35 0 0.70261)
# Probe 33 (-0.35 0 0.74799)
# Probe 34 (-0.35 0 0.79564)
# Probe 35 (-0.35 0 0.84567)
# Probe 36 (-0.35 0 0.8982)
# Probe 37 (-0.35 0 0.95336)
# Probe 38 (-0.35 0 1.01128)
# Probe 39 (-0.35 0 1.0721)
# Probe 40 (-0.35 0 1.13595)
# Probe 41 (-0.35 0 1.203)
# Probe 42 (-0.35 0 1.2734)
# Probe 43 (-0.35 0 1.34732)
# Probe 44 (-0.35 0 1.42493)
# Probe 45 (-0.35 0 1.50643)
# Probe 46 (-0.35 0 1.592)
# Probe 47 (-0.35 0 1.68185)
# Probe 48 (-0.35 0 1.77619)
# Probe 49 (-0.35 0 1.87525)
# Probe 50 (-0.35 0 1.97927)
# Probe 51 (-0.35 0 2.08848)
# Probe 52 (-0.35 0 2.20315)
# Probe 53 (-0.35 0 2.32356)
# Probe 54 (-0.35 0 2.44999)
#       Probe             0             1             2             3             4             5             6             7             8             9            10            11            12            13            14            15            16            17            18            19            20            21            22            23            24            25            26            27            28            29            30            31            32            33            34            35            36            37            38            39            40            41            42            43            44            45            46            47            48            49            50            51            52            53            54
#        Time
        7.322             (5.4856 -1.80344 -0.328335)             (6.17764 -1.71173 -0.652187)             (6.27822 -0.731646 -0.55991)             (6.3235 -1.04846 -0.811686)             (6.43575 -0.780913 -0.563477)             (6.48087 -0.432108 -0.0352862)             (6.31545 -0.462169 0.24479)             (6.28527 -0.525183 0.362203)             (6.33001 -0.615023 0.522201)             (6.24475 -0.932632 0.51248)             (6.18093 -0.772105 0.43139)             (6.21975 -0.474531 0.442847)             (6.29031 -0.275411 0.27225)             (6.12001 -0.293979 0.42801)             (6.04528 0.0132943 0.71189)             (6.28647 0.282747 0.54554)             (6.49302 0.360151 0.0875493)             (6.65819 0.125895 0.200554)             (6.7518 0.597271 0.216135)             (6.48727 0.790791 0.295219)             (6.45673 0.754899 0.285769)             (6.62692 1.03603 0.0964647)             (6.19868 0.974692 -0.0387904)             (6.38903 0.98394 0.0927993)             (6.32101 0.957558 -0.0639604)             (6.28694 0.578693 -0.175998)             (5.9794 0.734041 -0.216285)             (5.92593 0.976053 -0.0555124)             (6.03165 1.17558 -0.110755)             (6.03165 1.17558 -0.110755)             (5.84517 0.961668 0.165088)             (5.93187 0.909452 0.0879747)             (6.09713 0.991983 0.0585368)             (6.18879 0.769484 0.19467)             (7.04635 -0.414867 0.769858)             (7.31364 -0.265171 0.827972)             (7.45961 -0.161856 0.692649)             (7.56439 -0.624927 -0.0224681)             (-1e+300 -1e+300 -1e+300)             (-1e+300 -1e+300 -1e+300)             (-1e+300 -1e+300 -1e+300)             (-1e+300 -1e+300 -1e+300)             (-1e+300 -1e+300 -1e+300)             (-1e+300 -1e+300 -1e+300)             (-1e+300 -1e+300 -1e+300)             (-1e+300 -1e+300 -1e+300)             (-1e+300 -1e+300 -1e+300)             (-1e+300 -1e+300 -1e+300)             (-1e+300 -1e+300 -1e+300)             (-1e+300 -1e+300 -1e+300)             (-1e+300 -1e+300 -1e+300)             (-1e+300 -1e+300 -1e+300)             (-1e+300 -1e+300 -1e+300)             (-1e+300 -1e+300 -1e+300)             (-1e+300 -1e+300 -1e+300)
        7.324             (5.4799 -1.75122 -0.132154)             (5.54239 -1.63953 -0.227152)             (6.0601 -0.48045 -0.174884)             (6.31011 -0.398757 -0.33436)             (6.32106 -0.547373 -0.210579)             (6.17309 -0.886215 0.226981)             (6.26242 -0.93352 0.38707)             (6.27447 -0.999936 0.458775)             (6.23144 -0.879549 0.521469)             (6.05057 -0.853102 0.258692)             (6.22058 -0.573255 0.407963)             (6.29793 -0.268735 0.426683)             (6.00396 -0.215193 0.330562)             (6.13034 -0.0416377 0.5029)             (6.14762 0.190442 0.661446)             (6.23251 0.271614 0.639001)             (6.45813 0.161398 0.602048)             (6.7331 0.225312 0.436241)             (6.80683 0.47124 0.285955)             (6.48008 0.761708 0.271362)             (6.46791 0.819497 0.284558)             (6.52715 1.08833 -0.177204)             (6.19118 1.0213 -0.219846)             (6.35159 1.01638 0.027505)             (6.2664 1.0611 -0.151006)             (6.20922 0.663822 -0.192026)             (5.97549 0.766954 -0.250166)             (5.96601 1.01986 -0.127219)             (6.05529 1.16289 -0.15812)             (6.05529 1.16289 -0.15812)             (5.82982 0.936273 0.106418)             (5.93711 0.868202 0.00896659)             (6.18152 0.897507 -0.0141336)             (6.26694 0.660506 0.118023)             (7.09535 -0.426601 0.754166)             (7.28639 -0.198137 0.838675)             (7.40235 -0.146398 0.723008)             (7.50576 -0.621334 -0.0264176)             (-1e+300 -1e+300 -1e+300)             (-1e+300 -1e+300 -1e+300)             (-1e+300 -1e+300 -1e+300)             (-1e+300 -1e+300 -1e+300)             (-1e+300 -1e+300 -1e+300)             (-1e+300 -1e+300 -1e+300)             (-1e+300 -1e+300 -1e+300)             (-1e+300 -1e+300 -1e+300)             (-1e+300 -1e+300 -1e+300)             (-1e+300 -1e+300 -1e+300)             (-1e+300 -1e+300 -1e+300)             (-1e+300 -1e+300 -1e+300)             (-1e+300 -1e+300 -1e+300)             (-1e+300 -1e+300 -1e+300)             (-1e+300 -1e+300 -1e+300)             (-1e+300 -1e+300 -1e+300)             (-1e+300 -1e+300 -1e+300)
        7.326             (5.04937 -1.4153 -0.0241129)             (4.98958 -1.73738 -0.234402)             (5.22169 -0.855926 -0.267261)             (5.50701 -0.891071 -0.216388)             (5.57062 -1.19185 0.0968824)             (6.10263 -1.02474 0.352189)             (6.43063 -1.03906 0.529576)             (6.38955 -1.04846 0.495871)             (6.12152 -0.718352 0.343192)             (6.01512 -0.503327 0.033216)             (6.13439 -0.268303 0.270448)             (6.29442 -0.0665098 0.128403)             (6.05701 -0.132007 0.286523)             (6.27575 0.13594 0.494716)             (6.39553 0.16753 0.520029)             (6.47352 0.181007 0.480212)             (6.60867 0.0406819 0.660764)             (6.83834 0.203728 0.439358)             (6.87951 0.366443 0.337536)             (6.49036 0.715439 0.21636)             (6.44364 0.849063 0.247854)             (6.34419 1.13857 -0.237006)             (6.21179 1.17384 -0.312645)             (6.31727 1.03195 -0.034814)             (6.23964 1.13988 -0.232334)             (6.13597 0.786145 -0.225084)             (5.96807 0.832787 -0.278853)             (6.00975 1.07318 -0.205009)             (6.08519 1.14246 -0.203734)             (6.08519 1.14246 -0.203734)             (5.82132 0.907358 0.0444161)             (5.95011 0.828786 -0.0689503)             (6.2722 0.802317 -0.078201)             (6.36152 0.546638 0.0413081)             (7.14008 -0.420721 0.723482)             (7.26447 -0.128919 0.830604)             (7.36092 -0.143351 0.740291)             (7.46485 -0.610106 -0.0341279)             (-1e+300 -1e+300 -1e+300)             (-1e+300 -1e+300 -1e+300)             (-1e+300 -1e+300 -1e+300)             (-1e+300 -1e+300 -1e+300)             (-1e+300 -1e+300 -1e+300)             (-1e+300 -1e+300 -1e+300)             (-1e+300 -1e+300 -1e+300)             (-1e+300 -1e+300 -1e+300)             (-1e+300 -1e+300 -1e+300)             (-1e+300 -1e+300 -1e+300)             (-1e+300 -1e+300 -1e+300)             (-1e+300 -1e+300 -1e+300)             (-1e+300 -1e+300 -1e+300)             (-1e+300 -1e+300 -1e+300)             (-1e+300 -1e+300 -1e+300)             (-1e+300 -1e+300 -1e+300)             (-1e+300 -1e+300 -1e+300)
        7.328             (4.55573 -1.19959 0.119813)             (4.58273 -1.82001 -0.23923)             (4.6621 -1.11677 -0.395164)             (5.12864 -1.24441 -0.0932372)             (5.53967 -1.1563 0.0827793)             (6.18829 -1.0706 0.362842)             (6.46934 -1.01883 0.471067)             (6.3013 -0.894007 0.286355)             (5.90732 -0.464093 -0.0890424)             (6.11913 -0.179001 0.0592486)             (6.00482 0.0292435 -0.0129468)             (6.40748 -0.0810955 -0.0113515)             (6.3488 -0.0554102 0.157657)             (6.50278 0.132254 0.34409)             (6.49013 0.0577461 0.303616)             (6.74374 0.194809 0.188892)             (6.72802 0.0560958 0.326712)             (6.81154 0.197059 0.559949)             (6.90796 0.227227 0.259532)             (6.48715 0.658523 0.148409)             (6.47144 0.786251 0.195602)             (6.20586 1.09047 -0.0924814)             (6.23982 1.32686 -0.285323)             (6.29121 1.04002 -0.0924754)             (6.24403 1.18993 -0.300402)             (6.08289 0.925024 -0.259468)             (5.96932 0.916515 -0.295597)             (6.06011 1.12822 -0.28424)             (6.129 1.11487 -0.247738)             (6.129 1.11487 -0.247738)             (5.82937 0.874117 -0.0202861)             (5.98208 0.788416 -0.142998)             (6.37567 0.706066 -0.134152)             (6.47865 0.431245 -0.0326406)             (7.18288 -0.394727 0.682176)             (7.25456 -0.058218 0.804981)             (7.34412 -0.152965 0.742812)             (7.44936 -0.592759 -0.0470821)             (-1e+300 -1e+300 -1e+300)             (-1e+300 -1e+300 -1e+300)             (-1e+300 -1e+300 -1e+300)             (-1e+300 -1e+300 -1e+300)             (-1e+300 -1e+300 -1e+300)             (-1e+300 -1e+300 -1e+300)             (-1e+300 -1e+300 -1e+300)             (-1e+300 -1e+300 -1e+300)             (-1e+300 -1e+300 -1e+300)             (-1e+300 -1e+300 -1e+300)             (-1e+300 -1e+300 -1e+300)             (-1e+300 -1e+300 -1e+300)             (-1e+300 -1e+300 -1e+300)             (-1e+300 -1e+300 -1e+300)             (-1e+300 -1e+300 -1e+300)             (-1e+300 -1e+300 -1e+300)             (-1e+300 -1e+300 -1e+300)
         7.33             (4.32643 -1.23269 0.28405)             (4.55525 -1.60728 -0.238228)             (4.7865 -1.0338 -0.272429)             (5.33877 -0.945118 -0.0307571)             (5.7732 -0.944442 0.10212)             (6.49567 -1.2141 0.432534)             (6.29464 -0.886135 0.183479)             (6.02383 -0.691961 -0.0451004)             (5.89423 -0.396496 -0.237773)             (6.19232 0.00175393 0.197059)             (5.99227 0.072206 -0.137134)             (6.63787 -0.150974 0.0579867)             (6.53231 -0.00495681 -0.0688852)             (6.72585 0.191973 0.0212628)             (6.54957 0.0843781 0.152811)             (6.78013 0.28766 -0.0165707)             (6.75057 0.274727 0.0340075)             (6.76275 0.289409 0.381062)             (6.87976 0.0647633 0.0750292)             (6.46543 0.597902 0.0636189)             (6.54514 0.637204 0.124849)             (6.12449 0.897396 0.0789081)             (6.21791 1.38688 -0.179911)             (6.25216 1.04764 -0.147571)             (6.25401 1.21237 -0.3485)             (6.03231 1.05683 -0.2765)             (5.96031 1.00061 -0.293407)             (6.09131 1.17392 -0.356768)             (6.16292 1.08102 -0.285475)             (6.16292 1.08102 -0.285475)             (5.83162 0.836305 -0.0830337)             (6.01117 0.744551 -0.207712)             (6.46506 0.609202 -0.178362)             (6.59051 0.319178 -0.0968632)             (7.19388 -0.346072 0.638766)             (7.22901 0.0138998 0.767012)             (7.32524 -0.173472 0.731663)             (7.43152 -0.569374 -0.0644549)             (-1e+300 -1e+300 -1e+300)             (-1e+300 -1e+300 -1e+300)             (-1e+300 -1e+300 -1e+300)             (-1e+300 -1e+300 -1e+300)             (-1e+300 -1e+300 -1e+300)             (-1e+300 -1e+300 -1e+300)             (-1e+300 -1e+300 -1e+300)             (-1e+300 -1e+300 -1e+300)             (-1e+300 -1e+300 -1e+300)             (-1e+300 -1e+300 -1e+300)             (-1e+300 -1e+300 -1e+300)             (-1e+300 -1e+300 -1e+300)             (-1e+300 -1e+300 -1e+300)             (-1e+300 -1e+300 -1e+300)             (-1e+300 -1e+300 -1e+300)             (-1e+300 -1e+300 -1e+300)             (-1e+300 -1e+300 -1e+300)
        7.332             (4.21631 -1.31588 0.334771)             (4.72473 -1.34422 -0.206829)             (4.93814 -0.944928 -0.193158)             (5.43722 -0.932239 0.100741)             (5.94191 -1.13025 0.246122)             (6.51224 -0.878005 0.076867)             (6.0729 -0.587688 -0.375145)             (5.99732 -0.543649 -0.355783)             (6.25241 -0.438439 0.0239871)             (6.18117 -0.0281491 0.155398)             (6.14978 -0.0268564 -0.0302974)             (6.67061 0.0236331 -0.118177)             (6.57887 0.251474 -0.362938)             (6.96488 0.253757 -0.239357)             (6.79782 0.180125 0.0317558)             (6.66242 0.28436 -0.0471852)             (6.73684 0.41127 -0.0498051)             (6.76308 0.367127 0.0138953)             (6.79624 -0.0105112 -0.090394)             (6.45261 0.549629 -0.0322386)             (6.62728 0.491476 0.0243047)             (6.09176 0.654072 0.150417)             (6.10515 1.33677 -0.0695307)             (6.21155 1.0565 -0.20892)             (6.27551 1.21021 -0.380804)             (5.99327 1.15901 -0.273897)             (5.95014 1.06786 -0.278883)             (6.11018 1.19841 -0.423345)             (6.19589 1.04003 -0.319093)             (6.19589 1.04003 -0.319093)             (5.83894 0.792843 -0.145407)             (6.04868 0.693584 -0.262054)             (6.54794 0.510554 -0.213851)             (6.70595 0.215032 -0.149651)             (7.18336 -0.276094 0.597408)             (7.19804 0.0846216 0.719933)             (7.31503 -0.204224 0.706361)             (7.42125 -0.541799 -0.0862202)             (-1e+300 -1e+300 -1e+300)             (-1e+300 -1e+300 -1e+300)             (-1e+300 -1e+300 -1e+300)             (-1e+300 -1e+300 -1e+300)             (-1e+300 -1e+300 -1e+300)             (-1e+300 -1e+300 -1e+300)             (-1e+300 -1e+300 -1e+300)             (-1e+300 -1e+300 -1e+300)             (-1e+300 -1e+300 -1e+300)             (-1e+300 -1e+300 -1e+300)             (-1e+300 -1e+300 -1e+300)             (-1e+300 -1e+300 -1e+300)             (-1e+300 -1e+300 -1e+300)             (-1e+300 -1e+300 -1e+300)             (-1e+300 -1e+300 -1e+300)             (-1e+300 -1e+300 -1e+300)             (-1e+300 -1e+300 -1e+300)
        7.334             (4.20697 -1.39944 0.260413)             (4.69695 -1.02285 -0.406126)             (4.83745 -1.22698 -0.127759)             (5.41231 -1.10865 0.0605272)             (6.40539 -0.780747 -0.0041672)             (6.04988 -0.882673 -0.356597)             (6.18307 -0.70196 -0.488923)             (6.34595 -0.769857 -0.2963)             (6.40909 -0.653096 0.075679)             (6.21343 -0.107689 -0.00877939)             (6.27656 0.0229033 0.000138227)             (6.59752 0.147971 -0.256223)             (6.85693 0.212439 -0.153746)             (7.0993 0.091188 -0.334938)             (6.90117 0.199321 -0.170881)             (6.62789 0.361661 -0.0616742)             (6.61505 0.471374 -0.00621321)             (6.77753 0.430286 0.0368751)             (6.62582 0.0568728 -0.162591)             (6.44108 0.519928 -0.113607)             (6.67197 0.451984 -0.0994001)             (6.11505 0.507705 0.114374)             (5.90721 1.22947 -0.0105698)             (6.17786 1.06153 -0.277371)             (6.30789 1.18479 -0.402102)             (5.96537 1.21413 -0.260366)             (5.93842 1.10492 -0.264603)             (6.11594 1.19183 -0.485092)             (6.22809 0.990442 -0.348336)             (6.22809 0.990442 -0.348336)             (5.85275 0.741166 -0.205121)             (6.09548 0.630737 -0.303789)             (6.62254 0.407601 -0.242019)             (6.81969 0.121131 -0.188005)             (7.15277 -0.190413 0.562696)             (7.1611 0.147064 0.669141)             (7.31192 -0.245939 0.668757)             (7.41619 -0.513492 -0.110616)             (-1e+300 -1e+300 -1e+300)             (-1e+300 -1e+300 -1e+300)             (-1e+300 -1e+300 -1e+300)             (-1e+300 -1e+300 -1e+300)             (-1e+300 -1e+300 -1e+300)             (-1e+300 -1e+300 -1e+300)             (-1e+300 -1e+300 -1e+300)             (-1e+300 -1e+300 -1e+300)             (-1e+300 -1e+300 -1e+300)             (-1e+300 -1e+300 -1e+300)             (-1e+300 -1e+300 -1e+300)             (-1e+300 -1e+300 -1e+300)             (-1e+300 -1e+300 -1e+300)             (-1e+300 -1e+300 -1e+300)             (-1e+300 -1e+300 -1e+300)             (-1e+300 -1e+300 -1e+300)             (-1e+300 -1e+300 -1e+300)
        7.336             (4.21616 -1.34643 0.0951577)             (4.48471 -0.745257 -0.563664)             (4.68764 -1.63327 -0.11303)             (5.61324 -0.684219 -0.23833)             (6.23279 -0.858414 -0.292441)             (6.15719 -0.883074 -0.375557)             (6.45375 -0.908169 -0.20832)             (6.58009 -1.03193 -0.0983449)             (6.26452 -0.837305 -0.058151)             (6.24559 -0.217602 -0.0533696)             (6.16717 0.0221472 -0.012778)             (6.69322 -0.178582 -0.0863677)             (7.01069 -0.148185 -0.0431582)             (6.87206 0.0435758 -0.307471)             (6.65157 0.388432 -0.206876)             (6.60574 0.512548 -0.109619)             (6.58915 0.545664 -0.0184009)             (6.78713 0.358505 0.0670011)             (6.45167 0.177853 -0.187099)             (6.41679 0.488486 -0.164021)             (6.64619 0.541157 -0.227588)             (6.19085 0.543702 0.0424481)             (5.69986 1.14176 -0.0270495)             (6.15347 1.0585 -0.341363)             (6.34173 1.1398 -0.415714)             (5.94044 1.21799 -0.250816)             (5.91673 1.10986 -0.265131)             (6.10016 1.15568 -0.541535)             (6.2514 0.935337 -0.370242)             (6.2514 0.935337 -0.370242)             (5.8658 0.684105 -0.257983)             (6.1425 0.558615 -0.329081)             (6.67729 0.305077 -0.262126)             (6.91806 0.0469321 -0.207071)             (7.09598 -0.0891845 0.539558)             (7.10785 0.201885 0.621709)             (7.30326 -0.29084 0.62249)             (7.40313 -0.479686 -0.134402)             (-1e+300 -1e+300 -1e+300)             (-1e+300 -1e+300 -1e+300)             (-1e+300 -1e+300 -1e+300)             (-1e+300 -1e+300 -1e+300)             (-1e+300 -1e+300 -1e+300)             (-1e+300 -1e+300 -1e+300)             (-1e+300 -1e+300 -1e+300)             (-1e+300 -1e+300 -1e+300)             (-1e+300 -1e+300 -1e+300)             (-1e+300 -1e+300 -1e+300)             (-1e+300 -1e+300 -1e+300)             (-1e+300 -1e+300 -1e+300)             (-1e+300 -1e+300 -1e+300)             (-1e+300 -1e+300 -1e+300)             (-1e+300 -1e+300 -1e+300)             (-1e+300 -1e+300 -1e+300)             (-1e+300 -1e+300 -1e+300)
        7.338             (4.00652 -1.17898 -0.0848463)             (4.29805 -0.818125 -0.468314)             (4.66743 -1.76594 -0.144243)             (5.5204 -0.600117 -0.135558)             (5.80847 -0.987589 -0.338623)             (6.47796 -0.965479 -0.207828)             (6.57255 -1.11113 -0.0452421)             (6.64134 -1.22552 -0.00638076)             (6.38369 -0.874822 0.0229363)             (6.21044 -0.432989 -0.00798577)             (6.01016 -0.167456 0.133352)             (6.61571 -0.511548 -0.0380486)             (6.82267 -0.11631 -0.375036)             (6.60338 0.177221 -0.268366)             (6.41999 0.376324 -0.164748)             (6.52605 0.457116 -0.0611663)             (6.59365 0.46534 -0.0317576)             (6.72706 0.195848 -0.119529)             (6.36041 0.273172 -0.212123)             (6.38992 0.431867 -0.184953)             (6.56484 0.683359 -0.333795)             (6.28041 0.734475 -0.0270088)             (5.5813 1.10451 -0.104883)             (6.15812 1.04002 -0.388792)             (6.38532 1.07586 -0.430796)             (5.9321 1.17327 -0.265766)             (5.89945 1.08438 -0.29791)             (6.07902 1.09404 -0.598102)             (6.28272 0.873383 -0.38796)             (6.28272 0.873383 -0.38796)             (5.89618 0.62097 -0.305426)             (6.20509 0.476263 -0.340223)             (6.72785 0.203726 -0.278747)             (7.01436 -0.00349808 -0.208317)             (7.03584 0.0206807 0.527392)             (7.05803 0.244397 0.58056)             (7.30552 -0.335104 0.569467)             (7.39862 -0.44014 -0.156449)             (-1e+300 -1e+300 -1e+300)             (-1e+300 -1e+300 -1e+300)             (-1e+300 -1e+300 -1e+300)             (-1e+300 -1e+300 -1e+300)             (-1e+300 -1e+300 -1e+300)             (-1e+300 -1e+300 -1e+300)             (-1e+300 -1e+300 -1e+300)             (-1e+300 -1e+300 -1e+300)             (-1e+300 -1e+300 -1e+300)             (-1e+300 -1e+300 -1e+300)             (-1e+300 -1e+300 -1e+300)             (-1e+300 -1e+300 -1e+300)             (-1e+300 -1e+300 -1e+300)             (-1e+300 -1e+300 -1e+300)             (-1e+300 -1e+300 -1e+300)             (-1e+300 -1e+300 -1e+300)             (-1e+300 -1e+300 -1e+300)
         7.34             (3.66091 -1.03974 -0.198936)             (4.23643 -1.00129 -0.269252)             (4.67621 -1.81499 0.110567)             (5.1459 -1.15461 0.420228)             (5.50664 -1.02352 0.373057)             (6.51012 -1.21291 0.21238)             (6.67698 -1.41944 0.126869)             (6.81578 -1.29206 0.0771033)             (6.61643 -0.693146 -0.0171222)             (6.21569 -0.509234 -0.0217103)             (6.08459 -0.34316 0.106182)             (6.40059 -0.190917 -0.0216476)             (6.74574 0.0863841 -0.397437)             (6.48811 0.285632 -0.275495)             (6.32471 0.327296 -0.168323)             (6.40379 0.352304 -0.0322009)             (6.49157 0.34337 -0.0412643)             (6.60438 0.241757 -0.223009)             (6.33742 0.348092 -0.229864)             (6.35227 0.356759 -0.185232)             (6.47665 0.785562 -0.380108)             (6.31662 0.963842 -0.120582)             (5.58385 1.10245 -0.197107)             (6.19229 1.00098 -0.40731)             (6.43026 0.996296 -0.454836)             (5.94079 1.09061 -0.315544)             (5.88937 1.0344 -0.369129)             (6.05792 1.01364 -0.656859)             (6.32759 0.801073 -0.40335)             (6.32759 0.801073 -0.40335)             (5.94934 0.548553 -0.347449)             (6.28585 0.3813 -0.339031)             (6.77814 0.101664 -0.2938)             (7.10887 -0.0313799 -0.192932)             (6.98254 0.127713 0.524332)             (7.01816 0.266637 0.547383)             (7.32171 -0.379312 0.511949)             (7.40618 -0.398833 -0.174401)             (-1e+300 -1e+300 -1e+300)             (-1e+300 -1e+300 -1e+300)             (-1e+300 -1e+300 -1e+300)             (-1e+300 -1e+300 -1e+300)             (-1e+300 -1e+300 -1e+300)             (-1e+300 -1e+300 -1e+300)             (-1e+300 -1e+300 -1e+300)             (-1e+300 -1e+300 -1e+300)             (-1e+300 -1e+300 -1e+300)             (-1e+300 -1e+300 -1e+300)             (-1e+300 -1e+300 -1e+300)             (-1e+300 -1e+300 -1e+300)             (-1e+300 -1e+300 -1e+300)             (-1e+300 -1e+300 -1e+300)             (-1e+300 -1e+300 -1e+300)             (-1e+300 -1e+300 -1e+300)             (-1e+300 -1e+300 -1e+300)
        7.342             (3.53939 -1.09073 -0.107964)             (4.28579 -1.13184 -0.036703)             (4.91454 -1.70322 0.504765)             (5.12879 -1.62845 0.70917)             (5.45192 -1.27593 1.00829)             (5.86715 -1.42923 1.1179)             (6.61547 -1.4799 0.351958)             (6.9111 -0.992097 0.129953)             (6.77375 -0.493862 -0.111063)             (6.31648 -0.37427 -0.141103)             (6.25272 -0.24589 -0.181249)             (6.32098 0.0389975 -0.129601)             (6.7268 0.18295 -0.333744)             (6.40328 0.310184 -0.256898)             (6.28956 0.429749 -0.233636)             (6.38923 0.321966 -0.141708)             (6.42081 0.298968 -0.114138)             (6.53469 0.388521 -0.199889)             (6.34803 0.411708 -0.222946)             (6.29217 0.294492 -0.171896)             (6.43221 0.805266 -0.345058)             (6.28871 1.12262 -0.235493)             (5.66205 1.10437 -0.252904)             (6.229 0.943556 -0.387394)             (6.44611 0.910976 -0.488367)             (5.9453 0.987178 -0.392065)             (5.86923 0.969927 -0.466643)             (6.02243 0.923546 -0.710896)             (6.36957 0.715963 -0.411433)             (6.36957 0.715963 -0.411433)             (6.00805 0.465132 -0.377549)             (6.36342 0.274032 -0.322516)             (6.80779 0.000885505 -0.303037)             (7.1765 -0.0380675 -0.157732)             (6.91904 0.221656 0.531246)             (6.96736 0.263493 0.526291)             (7.32646 -0.422073 0.454847)             (7.40092 -0.358699 -0.1855)             (-1e+300 -1e+300 -1e+300)             (-1e+300 -1e+300 -1e+300)             (-1e+300 -1e+300 -1e+300)             (-1e+300 -1e+300 -1e+300)             (-1e+300 -1e+300 -1e+300)             (-1e+300 -1e+300 -1e+300)             (-1e+300 -1e+300 -1e+300)             (-1e+300 -1e+300 -1e+300)             (-1e+300 -1e+300 -1e+300)             (-1e+300 -1e+300 -1e+300)             (-1e+300 -1e+300 -1e+300)             (-1e+300 -1e+300 -1e+300)             (-1e+300 -1e+300 -1e+300)             (-1e+300 -1e+300 -1e+300)             (-1e+300 -1e+300 -1e+300)             (-1e+300 -1e+300 -1e+300)             (-1e+300 -1e+300 -1e+300)
        7.344             (3.89485 -1.43631 0.090531)             (4.34278 -1.3592 0.268046)             (5.26685 -1.52474 0.666359)             (5.20529 -1.64681 0.692501)             (5.66889 -1.13016 0.920642)             (5.63903 -1.49099 0.869974)             (6.12324 -1.32361 0.376475)             (6.61067 -0.789219 0.233673)             (6.74607 -0.398041 -0.0165491)             (6.30334 -0.149208 -0.350409)             (6.25892 0.155129 -0.305804)             (6.621 -0.176868 -0.125654)             (6.63707 0.13666 -0.331799)             (6.32017 0.305316 -0.244394)             (6.3937 0.38788 -0.288418)             (6.53599 0.354358 -0.196224)             (6.46345 0.402029 -0.144812)             (6.51114 0.500023 -0.0890757)             (6.40194 0.470762 -0.185403)             (6.25128 0.27573 -0.151829)             (6.44999 0.7579 -0.258904)             (6.27853 1.19222 -0.309958)             (5.76039 1.10529 -0.257842)             (6.26337 0.881226 -0.336651)             (6.43204 0.838383 -0.5342)             (5.95211 0.886312 -0.484142)             (5.85119 0.907073 -0.576299)             (5.98895 0.837903 -0.759145)             (6.4231 0.622645 -0.414775)             (6.4231 0.622645 -0.414775)             (6.0872 0.376778 -0.397529)             (6.44917 0.162918 -0.296497)             (6.83244 -0.0897897 -0.308904)             (7.22915 -0.0186281 -0.107665)             (6.86571 0.300919 0.542649)             (6.92373 0.240377 0.514998)             (7.33382 -0.453095 0.399785)             (7.39825 -0.313412 -0.189725)             (-1e+300 -1e+300 -1e+300)             (-1e+300 -1e+300 -1e+300)             (-1e+300 -1e+300 -1e+300)             (-1e+300 -1e+300 -1e+300)             (-1e+300 -1e+300 -1e+300)             (-1e+300 -1e+300 -1e+300)             (-1e+300 -1e+300 -1e+300)             (-1e+300 -1e+300 -1e+300)             (-1e+300 -1e+300 -1e+300)             (-1e+300 -1e+300 -1e+300)             (-1e+300 -1e+300 -1e+300)             (-1e+300 -1e+300 -1e+300)             (-1e+300 -1e+300 -1e+300)             (-1e+300 -1e+300 -1e+300)             (-1e+300 -1e+300 -1e+300)             (-1e+300 -1e+300 -1e+300)             (-1e+300 -1e+300 -1e+300)