# Probe 0 (-0.35 0 0.005)
# Probe 1 (-0.35 0 0.0155)
# Probe 2 (-0.35 0 0.02653)
# Probe 3 (-0.35 0 0.0381)
# Probe 4 (-0.35 0 0.05026)
# Probe 5 (-0.35 0 0.06302)
# Probe 6 (-0.35 0 0.07642)
# Probe 7 (-0.35 0 0.08)
# Probe 8 (-0.35 0 0.09049)
# Probe 9 (-0.35 0 0.10527)
# Probe 10 (-0.35 0 0.12078)
# Probe 11 (-0.35 0 0.13707)
# Probe 12 (-0.35 0 0.15417)
# Probe 13 (-0.35 0 0.17213)
# Probe 14 (-0.35 0 0.19099)
# Probe 15 (-0.35 0 0.2)
# Probe 16 (-0.35 0 0.21079)
# Probe 17 (-0.35 0 0.23157)
# Probe 18 (-0.35 0 0.2534)
# Probe 19 (-0.35 0 0.27632)
# Probe 20 (-0.35 0 0.30039)
# Probe 21 (-0.35 0 0.32566)
# Probe 22 (-0.35 0 0.35219)
# Probe 23 (-0.35 0 0.38005)
# Probe 24 (-0.35 0 0.4093)
# Probe 25 (-0.35 0 0.44002)
# Probe 26 (-0.35 0 0.47227)
# Probe 27 (-0.35 0 0.50613)
# Probe 28 (-0.35 0 0.54169)
# Probe 29 (-0.35 0 0.57903)
# Probe 30 (-0.35 0 0.61823)
# Probe 31 (-0.35 0 0.65939)
# Probe 32 (-0.35 0 0.70261)
# Probe 33 (-0.35 0 0.74799)
# Probe 34 (-0.35 0 0.79564)
# Probe 35 (-0.35 0 0.84567)
# Probe 36 (-0.35 0 0.8982)
# Probe 37 (-0.35 0 0.95336)
# Probe 38 (-0.35 0 1.01128)
# Probe 39 (-0.35 0 1.0721)
# Probe 40 (-0.35 0 1.13595)
# Probe 41 (-0.35 0 1.203)
# Probe 42 (-0.35 0 1.2734)
# Probe 43 (-0.35 0 1.34732)
# Probe 44 (-0.35 0 1.42493)
# Probe 45 (-0.35 0 1.50643)
# Probe 46 (-0.35 0 1.592)
# Probe 47 (-0.35 0 1.68185)
# Probe 48 (-0.35 0 1.77619)
# Probe 49 (-0.35 0 1.87525)
# Probe 50 (-0.35 0 1.97927)
# Probe 51 (-0.35 0 2.08848)
# Probe 52 (-0.35 0 2.20315)
# Probe 53 (-0.35 0 2.32356)
# Probe 54 (-0.35 0 2.44999)
#       Probe             0             1             2             3             4             5             6             7             8             9            10            11            12            13            14            15            16            17            18            19            20            21            22            23            24            25            26            27            28            29            30            31            32            33            34            35            36            37            38            39            40            41            42            43            44            45            46            47            48            49            50            51            52            53            54
#        Time
        0.262       2.29141       1.92753       1.90475        1.8162       1.81461      0.667715       0.70929      0.691132      0.274046       1.13968      0.230259      0.636891       1.19363       1.13785       1.41654       1.33987      0.988555      0.737496       1.23356        1.2028       1.40143         1.092      0.945303       0.88371       1.00728       1.19697       1.21829       1.12673       1.07744       1.07744      0.565789      0.685936       1.02279        1.5505       1.72833       1.89311        2.0092        2.0489       -1e+300       -1e+300       -1e+300       -1e+300       -1e+300       -1e+300       -1e+300       -1e+300       -1e+300       -1e+300       -1e+300       -1e+300       -1e+300       -1e+300       -1e+300       -1e+300       -1e+300
        0.264       1.47132       1.23568       1.25959       1.08421      0.934131    -0.0959766      0.112295      0.124703     -0.105966      0.619195      0.334943     -0.308114      0.595168      0.514394      0.641963       0.63886      0.426452      0.241746      0.522766      0.596047      0.606142      0.332981      0.189949      0.157706      0.295369      0.573752      0.513194      0.430463      0.401606      0.401606    -0.0934578     0.0644603      0.425696      0.921091       1.03792       1.22059       1.33739        1.3437       -1e+300       -1e+300       -1e+300       -1e+300       -1e+300       -1e+300       -1e+300       -1e+300       -1e+300       -1e+300       -1e+300       -1e+300       -1e+300       -1e+300       -1e+300       -1e+300       -1e+300
        0.266      0.694232       0.78779       0.68886      0.514118      0.253337     -0.238882     -0.164551     -0.127701     -0.410034     -0.806044     0.0771609     -0.361563     -0.178109     -0.200155   -0.00348225   -0.00078985    -0.0281359     -0.140036     -0.221879      0.177697    -0.0928596     -0.411602     -0.558119     -0.500718     -0.327989    0.00280335     -0.129719      -0.19368     -0.245968     -0.245968     -0.664793     -0.497045     -0.123349      0.342159       0.40018      0.598611      0.708858       0.65729       -1e+300       -1e+300       -1e+300       -1e+300       -1e+300       -1e+300       -1e+300       -1e+300       -1e+300       -1e+300       -1e+300       -1e+300       -1e+300       -1e+300       -1e+300       -1e+300       -1e+300
        0.268      -3.90886      -3.60374       -3.8332       -3.9608      -4.15917       -4.0806      -4.33102      -4.51144      -4.69472       -4.7667      -4.31403      -4.26249      -4.78158      -4.65254      -4.46818      -4.45505      -4.40586      -4.51861      -4.64534      -4.11872      -4.62954      -5.17047      -5.29607      -5.13859      -4.94212        -4.572      -4.75211      -4.80694      -4.88561      -4.88561      -5.25936      -5.11181      -4.74879      -4.38191      -4.35997      -4.17482      -4.08907      -4.19115       -1e+300       -1e+300       -1e+300       -1e+300       -1e+300       -1e+300       -1e+300       -1e+300       -1e+300       -1e+300       -1e+300       -1e+300       -1e+300       -1e+300       -1e+300       -1e+300       -1e+300
         0.27       -13.119      -12.8217      -13.0921      -13.0961      -13.1429      -13.0315      -13.3685      -13.5553      -13.8102      -13.3281      -13.3801      -13.3832      -13.7417      -13.5646      -13.5961      -13.6071      -13.6141      -13.7269      -13.8236      -13.2809      -13.8994      -14.8032      -14.8746      -14.5856      -14.3362      -13.9482      -14.0965      -14.1353      -14.2282      -14.2282      -14.5789      -14.4291      -14.0862      -13.8114       -13.817      -13.6471      -13.5814      -13.7307       -1e+300       -1e+300       -1e+300       -1e+300       -1e+300       -1e+300       -1e+300       -1e+300       -1e+300       -1e+300       -1e+300       -1e+300       -1e+300       -1e+300       -1e+300       -1e+300       -1e+300
        0.272      -1.72024      -1.53852      -1.74351      -1.73047      -1.75674      -1.94776       -1.9966      -2.02106      -2.02181      -1.64265       -2.0083      -1.97757      -2.21241      -2.04498      -2.11103      -2.07467      -2.14899      -2.27054       -2.2137       -1.9225      -2.52384      -3.75204      -3.69755      -3.16562      -2.81028      -2.34389      -2.37685      -2.37582      -2.48024      -2.48024      -2.66045      -2.51652      -2.13851      -1.90289      -1.83211      -1.66179      -1.59525      -1.75686       -1e+300       -1e+300       -1e+300       -1e+300       -1e+300       -1e+300       -1e+300       -1e+300       -1e+300       -1e+300       -1e+300       -1e+300       -1e+300       -1e+300       -1e+300       -1e+300       -1e+300
        0.274      -11.6998      -11.6414      -11.8079      -11.8665        -12.05      -12.1347      -12.1003      -12.1027      -11.8767       -11.627      -12.0873      -12.2758      -12.4894      -12.2534      -12.1994      -12.1603      -12.2308       -12.365      -12.4163       -12.346      -12.9619      -14.5335      -14.2234      -13.7066      -13.2694      -12.8237      -12.8212      -12.8666      -12.9818      -12.9818      -13.1263      -13.0324      -12.7234      -12.6024      -12.6058      -12.4916      -12.4588      -12.6925       -1e+300       -1e+300       -1e+300       -1e+300       -1e+300       -1e+300       -1e+300       -1e+300       -1e+300       -1e+300       -1e+300       -1e+300       -1e+300       -1e+300       -1e+300       -1e+300       -1e+300
        0.276        2.4307       2.34621        2.2802          2.11       1.89525       1.80574       1.72992       1.65919        1.9881       2.16351       1.94241       1.47931       1.16892       1.76219         1.758       1.78135       1.75004       1.68667        1.3849       1.49578      0.966373     -0.815685     -0.339116      0.386543      0.934628       1.48018       1.53427       1.55263       1.47463       1.47463       1.48334       1.62321       1.94672       2.07242       2.17685       2.29156       2.34725       2.15643       -1e+300       -1e+300       -1e+300       -1e+300       -1e+300       -1e+300       -1e+300       -1e+300       -1e+300       -1e+300       -1e+300       -1e+300       -1e+300       -1e+300       -1e+300       -1e+300       -1e+300
        0.278       1.83273       1.59919       1.46453       1.39409       1.26001      0.989238      0.959385      0.900409       1.09099       1.07897      0.997066      0.505795      0.179246      0.644167      0.771059      0.728958      0.684002      0.642082      0.234356      0.425595    -0.0588454      -1.90717     -0.992497     -0.393314    -0.0145734      0.595414      0.627539      0.691205      0.678855      0.678855      0.717947      0.864545       1.14585       1.24412       1.37507       1.46871       1.53351       1.32002       -1e+300       -1e+300       -1e+300       -1e+300       -1e+300       -1e+300       -1e+300       -1e+300       -1e+300       -1e+300       -1e+300       -1e+300       -1e+300       -1e+300       -1e+300       -1e+300       -1e+300
         0.28      -2.54958      -2.89697      -3.14506      -3.14647      -3.28838      -3.55118      -3.26414      -3.22346      -3.36439       -3.8051      -3.92809      -4.05002      -4.44703      -4.20902      -4.01157      -3.98011      -4.01558      -3.97822       -3.9415      -4.27474      -4.69941      -6.35666      -5.52911      -4.97286      -4.66154      -4.04358      -4.04463      -3.95563      -3.88348      -3.88348      -3.83653      -3.70081      -3.49369       -3.4206       -3.2707      -3.20911      -3.15347      -3.31907       -1e+300       -1e+300       -1e+300       -1e+300       -1e+300       -1e+300       -1e+300       -1e+300       -1e+300       -1e+300       -1e+300       -1e+300       -1e+300       -1e+300       -1e+300       -1e+300       -1e+300
        0.282      -6.72454      -7.17414      -7.49398      -7.45021      -7.61176      -7.68074      -7.36504      -7.41783      -7.90153       -8.4542      -8.45133      -8.51333      -8.79747      -8.56169      -8.26718      -8.19594      -8.26163       -8.4095      -8.08399      -8.59501      -8.98742      -10.1804      -9.98787      -9.24984      -8.97933      -8.41093      -8.45266      -8.35197      -8.24213      -8.24213      -8.23543      -8.13819      -8.01076      -7.97016       -7.8357      -7.80766      -7.74557      -7.93453       -1e+300       -1e+300       -1e+300       -1e+300       -1e+300       -1e+300       -1e+300       -1e+300       -1e+300       -1e+300       -1e+300       -1e+300       -1e+300       -1e+300       -1e+300       -1e+300       -1e+300
        0.284      -8.17174      -8.65998      -9.00371      -8.94482      -8.97549       -9.0448      -8.89704      -9.06095      -9.75981      -10.1741      -9.93448      -10.0879      -10.3147      -10.0001      -9.59083      -9.50021       -9.6431      -9.78623      -9.80362      -9.96413      -10.3432      -11.1172      -11.1959      -10.4737      -10.2532      -9.74137      -9.85879      -9.73113       -9.6073       -9.6073      -9.59004      -9.52529      -9.45764      -9.42918      -9.28246      -9.28294      -9.20271      -9.42487       -1e+300       -1e+300       -1e+300       -1e+300       -1e+300       -1e+300       -1e+300       -1e+300       -1e+300       -1e+300       -1e+300       -1e+300       -1e+300       -1e+300       -1e+300       -1e+300       -1e+300
        0.286      -7.36548      -7.87799      -8.20502      -8.44455      -8.62709       -8.5303      -8.56147      -8.80806      -9.47876      -9.53433      -9.08879      -9.30104      -9.23916      -9.00801      -8.82062      -8.61557      -8.74333      -8.73029      -8.98881      -8.98468       -9.3393      -9.90191      -9.82158      -9.22919      -9.07934      -8.69221       -8.8228      -8.75081      -8.63628      -8.63628       -8.5267      -8.47803      -8.45317      -8.42453      -8.24341      -8.25542      -8.17362      -8.38244       -1e+300       -1e+300       -1e+300       -1e+300       -1e+300       -1e+300       -1e+300       -1e+300       -1e+300       -1e+300       -1e+300       -1e+300       -1e+300       -1e+300       -1e+300       -1e+300       -1e+300
        0.288      -9.13167      -9.52483      -9.83399      -10.4876      -10.7299      -10.4219      -10.7067      -11.0314      -11.3923      -11.1408        -10.69      -10.8177      -10.6569      -10.4495      -10.4314      -10.3887      -10.3664      -10.3418      -10.3623      -10.5299      -10.8394      -11.2237      -10.9633       -10.624      -10.5095      -10.2288      -10.3966      -10.3853      -10.2309      -10.2309      -10.1717      -10.1597       -10.175      -10.1603       -9.9607      -10.0046      -9.91439      -10.1815       -1e+300       -1e+300       -1e+300       -1e+300       -1e+300       -1e+300       -1e+300       -1e+300       -1e+300       -1e+300       -1e+300       -1e+300       -1e+300       -1e+300       -1e+300       -1e+300       -1e+300
         0.29      -16.7498      -17.0585      -17.2428      -17.8081      -18.1618      -18.0633      -18.3099      -18.5187      -18.6478      -18.3418      -18.1047       -18.037      -18.0247       -17.894      -17.8196      -18.0017      -18.0897      -18.0062      -17.9098      -18.0162      -18.3029      -18.4579      -18.1018      -18.0865      -17.9998      -17.8215      -18.0057      -18.0813      -17.9388      -17.9388      -17.9174      -17.9555      -18.0152      -18.0329       -17.858      -17.9131      -17.8441      -18.1031       -1e+300       -1e+300       -1e+300       -1e+300       -1e+300       -1e+300       -1e+300       -1e+300       -1e+300       -1e+300       -1e+300       -1e+300       -1e+300       -1e+300       -1e+300       -1e+300       -1e+300
        0.292      -12.5795      -12.7645      -12.7514      -13.1039      -13.4843      -13.5006      -13.4664      -13.5701      -13.7578      -13.5388      -13.4837      -13.4072       -13.478       -13.376       -13.397      -13.5968      -13.8546      -13.7401      -13.4892      -13.5022      -13.7235      -13.6922      -13.3647      -13.6171      -13.4776      -13.2818      -13.4742       -13.519      -13.4413      -13.4413      -13.4015      -13.4422      -13.4995      -13.5145      -13.3072      -13.3716      -13.3027      -13.5774       -1e+300       -1e+300       -1e+300       -1e+300       -1e+300       -1e+300       -1e+300       -1e+300       -1e+300       -1e+300       -1e+300       -1e+300       -1e+300       -1e+300       -1e+300       -1e+300       -1e+300
        0.294      -5.42912      -5.37287      -5.29032      -5.43084      -5.78468      -5.76652      -5.69308      -5.73211      -5.89459      -5.83349      -5.90649      -5.87773      -5.88931      -5.82074       -5.9455      -6.10843      -6.42203      -6.37808      -6.09583      -6.03453      -6.16839      -5.96655      -5.79287      -6.20265      -5.94171      -5.70318      -5.83308      -5.82165      -5.78245      -5.78245      -5.66681      -5.66916      -5.68723      -5.67618      -5.39308      -5.47267      -5.36921      -5.70693       -1e+300       -1e+300       -1e+300       -1e+300       -1e+300       -1e+300       -1e+300       -1e+300       -1e+300       -1e+300       -1e+300       -1e+300       -1e+300       -1e+300       -1e+300       -1e+300       -1e+300
        0.296      -11.9445       -11.829      -11.7237      -11.8099      -12.0053      -11.9079      -11.9033      -11.8751      -11.9566       -12.134      -12.1705      -12.2066      -12.1826       -12.144      -12.3246      -12.4529      -12.6601       -12.787      -12.5743      -12.6028        -12.65      -12.3581       -12.351      -12.8072      -12.5234      -12.3334      -12.4181      -12.4036      -12.4149      -12.4149      -12.3007      -12.3113      -12.3471      -12.3622      -12.0928      -12.2317      -12.1097      -12.5261       -1e+300       -1e+300       -1e+300       -1e+300       -1e+300       -1e+300       -1e+300       -1e+300       -1e+300       -1e+300       -1e+300       -1e+300       -1e+300       -1e+300       -1e+300       -1e+300       -1e+300
        0.298      -18.9615      -18.8663      -18.8126      -18.7504      -18.7529      -18.8018      -18.8311      -18.7775      -18.7815      -19.0962      -19.1047      -19.1831      -19.1715      -19.1636      -19.4645      -19.5162      -19.6089      -19.7443      -19.5937      -19.7827      -19.8773      -19.5855      -19.7113      -20.0359      -19.7932      -19.5976      -19.6576      -19.6629       -19.699       -19.699      -19.6786      -19.7021      -19.7494       -19.796      -19.5793      -19.7289      -19.6433      -20.0473       -1e+300       -1e+300       -1e+300       -1e+300       -1e+300       -1e+300       -1e+300       -1e+300       -1e+300       -1e+300       -1e+300       -1e+300       -1e+300       -1e+300       -1e+300       -1e+300       -1e+300
          0.3      -16.7011        -16.55      -16.3844      -16.1502      -16.2015      -16.4124      -16.4639      -16.3992      -16.2683      -16.5407      -16.6292      -16.7638      -16.7701      -16.7955      -17.0553       -17.164       -17.122      -17.2713      -17.0747      -17.3215      -17.5828      -17.2868      -17.5482      -17.5578      -17.4001      -17.1244      -17.1682      -17.1522      -17.1678      -17.1678      -17.1979      -17.1865      -17.2032      -17.2377      -17.0402      -17.1511      -17.0993      -17.4255       -1e+300       -1e+300       -1e+300       -1e+300       -1e+300       -1e+300       -1e+300       -1e+300       -1e+300       -1e+300       -1e+300       -1e+300       -1e+300       -1e+300       -1e+300       -1e+300       -1e+300
        0.302      -12.2431       -11.874      -11.5736      -11.4386      -11.4729      -11.7615      -11.8573      -11.8111      -11.4988      -11.7753       -11.903      -12.0829       -12.081      -12.1737      -12.2342      -12.3677       -12.345      -12.5073      -12.4044      -12.4835      -12.9092      -12.6652      -13.0351      -12.7875      -12.6552      -12.3503      -12.4145      -12.4477      -12.5002      -12.5002      -12.5238      -12.4742       -12.475      -12.5144      -12.2987      -12.4493       -12.386      -12.6961       -1e+300       -1e+300       -1e+300       -1e+300       -1e+300       -1e+300       -1e+300       -1e+300       -1e+300       -1e+300       -1e+300       -1e+300       -1e+300       -1e+300       -1e+300       -1e+300       -1e+300
        0.304      -12.7007      -12.0097      -11.6712       -11.664      -11.7122      -11.9112      -12.2582      -12.3691      -12.1001      -12.1341      -12.1195      -12.2793      -12.2755      -12.2648      -12.3218       -12.431      -12.4875       -12.585       -12.682      -12.5454      -12.9447      -12.8981      -13.2173      -12.8801      -12.7407      -12.4824      -12.6448      -12.7362       -12.788       -12.788      -12.8778       -12.817      -12.8224      -12.8461      -12.7042      -12.8035      -12.7633      -13.0569       -1e+300       -1e+300       -1e+300       -1e+300       -1e+300       -1e+300       -1e+300       -1e+300       -1e+300       -1e+300       -1e+300       -1e+300       -1e+300       -1e+300       -1e+300       -1e+300       -1e+300
        0.306        -10.49      -9.58019      -9.32858      -9.36672       -9.4854      -9.58763      -10.2573      -10.5039      -10.1802      -9.81524      -9.83083      -9.93093      -9.92692      -9.79129      -9.83233      -9.96665      -10.1094      -10.1286      -10.1958      -10.1326      -10.3319      -10.4481      -10.6097      -10.2362      -10.0601      -9.93697      -10.1095      -10.2749      -10.2652      -10.2652      -10.4263       -10.339      -10.3187      -10.3085      -10.1286      -10.2114      -10.1735      -10.4028       -1e+300       -1e+300       -1e+300       -1e+300       -1e+300       -1e+300       -1e+300       -1e+300       -1e+300       -1e+300       -1e+300       -1e+300       -1e+300       -1e+300       -1e+300       -1e+300       -1e+300
        0.308      -7.95845      -7.07029      -6.95398      -7.02044      -7.10524      -7.29748      -7.88791      -8.07785      -7.82434      -7.28367      -7.45458      -7.55358      -7.44865      -7.33589       -7.3361      -7.42513      -7.55973      -7.59843      -7.76598      -7.75577      -7.83137      -7.85456      -7.91086      -7.56037      -7.31067      -7.35831      -7.57388      -7.81301      -7.77568      -7.77568      -7.90747      -7.82152       -7.7713      -7.71812      -7.49445       -7.5496      -7.53007      -7.69723       -1e+300       -1e+300       -1e+300       -1e+300       -1e+300       -1e+300       -1e+300       -1e+300       -1e+300       -1e+300       -1e+300       -1e+300       -1e+300       -1e+300       -1e+300       -1e+300       -1e+300
         0.31      -7.34921      -6.74241      -6.71413      -6.81616       -6.8596       -7.0412      -7.36843      -7.53398      -7.48795      -6.97385      -7.18728      -7.27594      -7.12435      -7.01982      -6.97435      -7.09086       -7.1716      -7.21598      -7.48698      -7.54691      -7.62083      -7.47555      -7.45552      -7.18752      -6.93138      -7.11018      -7.37312      -7.69713      -7.66508      -7.66508      -7.81746      -7.77228      -7.72624      -7.64958      -7.42934       -7.4795      -7.47549      -7.59285       -1e+300       -1e+300       -1e+300       -1e+300       -1e+300       -1e+300       -1e+300       -1e+300       -1e+300       -1e+300       -1e+300       -1e+300       -1e+300       -1e+300       -1e+300       -1e+300       -1e+300
        0.312      -4.10629      -3.80095      -3.82907      -3.94266      -3.98017      -4.04648      -4.27676      -4.44761      -4.51034      -4.15391      -4.26705      -4.32691      -4.19139      -4.12511      -4.08251      -4.16172      -4.16912      -4.24139      -4.42748      -4.62645      -4.67665      -4.45828      -4.42434      -4.25504      -3.95857      -4.25648      -4.53283      -4.91034      -4.92772      -4.92772      -5.06427      -5.07983      -5.04185       -4.9459      -4.69151      -4.76737      -4.76867      -4.89362       -1e+300       -1e+300       -1e+300       -1e+300       -1e+300       -1e+300       -1e+300       -1e+300       -1e+300       -1e+300       -1e+300       -1e+300       -1e+300       -1e+300       -1e+300       -1e+300       -1e+300
        0.314      -3.57317      -3.59841      -3.69615      -3.79365      -3.81975      -3.86847       -4.0001      -4.13415      -4.20733       -4.0476      -4.03503      -4.03573      -3.91033      -3.93294       -3.9832      -3.94641      -3.91013      -3.99306      -4.18482      -4.39105      -4.32795       -4.1973      -4.16642      -4.11592      -3.80224      -4.10731      -4.37786      -4.76936      -4.79446      -4.79446      -4.86178      -4.93739      -4.87822      -4.74281       -4.4487      -4.49002      -4.50095      -4.56145       -1e+300       -1e+300       -1e+300       -1e+300       -1e+300       -1e+300       -1e+300       -1e+300       -1e+300       -1e+300       -1e+300       -1e+300       -1e+300       -1e+300       -1e+300       -1e+300       -1e+300
        0.316      -3.12921      -3.42282      -3.60001      -3.62437      -3.63505      -3.71408       -3.7248      -3.76734      -3.75765       -3.8224      -3.72874      -3.61223      -3.57852      -3.68188      -3.93086      -3.87093      -3.74518      -3.76845      -3.97368      -4.08597      -3.96253      -4.02167      -4.05076      -4.06808      -3.72115      -4.05008       -4.2731      -4.64295      -4.71168      -4.71168       -4.7827      -4.87116      -4.80595       -4.5808      -4.31711       -4.3383      -4.35271      -4.39523       -1e+300       -1e+300       -1e+300       -1e+300       -1e+300       -1e+300       -1e+300       -1e+300       -1e+300       -1e+300       -1e+300       -1e+300       -1e+300       -1e+300       -1e+300       -1e+300       -1e+300
        0.318     -0.963497      -1.32758      -1.59153      -1.49582      -1.49455      -1.71383      -1.67549       -1.6432      -1.55808        -1.647      -1.47331      -1.26178      -1.33022      -1.31655      -1.51308      -1.61014      -1.58705      -1.63401      -1.63651      -1.78968       -1.6944      -1.98664      -2.09215      -2.08909       -1.7553      -2.10325      -2.31737      -2.67733      -2.81367      -2.81367      -2.84079      -2.98874       -2.9601      -2.78444      -2.44727      -2.48755      -2.50698      -2.56195       -1e+300       -1e+300       -1e+300       -1e+300       -1e+300       -1e+300       -1e+300       -1e+300       -1e+300       -1e+300       -1e+300       -1e+300       -1e+300       -1e+300       -1e+300       -1e+300       -1e+300
         0.32      -2.02646      -2.17212      -2.46528      -2.33559       -2.2823      -2.68352      -2.66483      -2.60509      -2.38291      -2.32243      -2.10135      -1.89194      -1.96295      -1.94885      -1.90397      -2.02028      -2.14686      -2.35827      -2.36268      -2.43883      -2.43753      -2.83331      -2.99934      -2.84795       -2.6638      -2.97649       -3.1583      -3.42889      -3.59181      -3.59181      -3.62225      -3.70901      -3.67951      -3.49095      -3.13505      -3.15148      -3.17465      -3.21152       -1e+300       -1e+300       -1e+300       -1e+300       -1e+300       -1e+300       -1e+300       -1e+300       -1e+300       -1e+300       -1e+300       -1e+300       -1e+300       -1e+300       -1e+300       -1e+300       -1e+300
        0.322       3.38887       3.36158       3.15211        3.1606       3.17684       2.91329       3.03993       3.16309       3.52271       3.54037       3.69423       3.76422       3.71783       3.79798       3.92486       3.78074       3.62473       3.23961       3.07074       3.20541       3.08433       2.79487        2.6122       2.86718       2.98292       2.68414       2.54111       2.36866       2.19689       2.19689       2.18899       2.13985       2.18021       2.39608       2.79307       2.80114        2.7842       2.75612       -1e+300       -1e+300       -1e+300       -1e+300       -1e+300       -1e+300       -1e+300       -1e+300       -1e+300       -1e+300       -1e+300       -1e+300       -1e+300       -1e+300       -1e+300       -1e+300       -1e+300
        0.324      0.794754      0.794128      0.752784      0.627899      0.378735      0.459202      0.799319      0.989648       1.25074       1.18839       1.24893       1.20757       1.16557       1.24806       1.24829       1.09787      0.935069       0.62572      0.492496       0.47557      0.292328      0.189524   -0.00794212      0.100087       0.10574     -0.181924     -0.324035     -0.436793     -0.653305     -0.653305     -0.660512     -0.688732     -0.671109     -0.479679     -0.185393     -0.172652     -0.201286     -0.235902       -1e+300       -1e+300       -1e+300       -1e+300       -1e+300       -1e+300       -1e+300       -1e+300       -1e+300       -1e+300       -1e+300       -1e+300       -1e+300       -1e+300       -1e+300       -1e+300       -1e+300
        0.326      -9.55913      -9.58582      -9.59182      -9.75968      -10.2424      -9.88385      -9.45282      -9.28441      -9.09995      -9.02293      -9.12303      -9.22298      -9.33747      -9.27883      -9.39254      -9.50911      -9.65976      -9.91583      -9.86844      -10.1213        -10.28      -10.2472      -10.4351      -10.5875      -10.6444      -10.9103      -11.0522      -11.1196      -11.3436      -11.3436      -11.3115      -11.3283      -11.3348      -11.1832      -10.9505      -10.9102      -10.9483      -10.9846       -1e+300       -1e+300       -1e+300       -1e+300       -1e+300       -1e+300       -1e+300       -1e+300       -1e+300       -1e+300       -1e+300       -1e+300       -1e+300       -1e+300       -1e+300       -1e+300       -1e+300
        0.328      -8.63484      -8.70096       -8.6834      -9.00256      -9.48016      -8.95048      -8.51201      -8.38999      -8.05306      -8.11784      -8.33346      -8.73617      -8.71335      -8.60684      -8.69489      -8.86798      -9.05431      -9.21275      -9.15439      -9.36522      -9.44556      -9.37172      -9.51211      -9.80576      -9.87361      -10.0611      -10.1926      -10.2189      -10.4276      -10.4276      -10.4396      -10.4004      -10.3927       -10.248      -10.0594      -9.99239      -10.0271      -10.0452       -1e+300       -1e+300       -1e+300       -1e+300       -1e+300       -1e+300       -1e+300       -1e+300       -1e+300       -1e+300       -1e+300       -1e+300       -1e+300       -1e+300       -1e+300       -1e+300       -1e+300
         0.33     0.0224362      -0.06932    -0.0612014     -0.499355     -0.866718     -0.255286     0.0913108      0.175345      0.477505      0.283624    -0.0890888      -0.86623     -0.298693     -0.147394     -0.200445     -0.419745     -0.552728     -0.653857     -0.723391     -0.875257     -0.888375      -0.80864     -0.828434      -1.13443      -1.25652      -1.32765      -1.43104      -1.43216      -1.63128      -1.63128      -1.62802      -1.53062      -1.49449      -1.37769      -1.16709      -1.05207      -1.07188       -1.0721       -1e+300       -1e+300       -1e+300       -1e+300       -1e+300       -1e+300       -1e+300       -1e+300       -1e+300       -1e+300       -1e+300       -1e+300       -1e+300       -1e+300       -1e+300       -1e+300       -1e+300