# Probe 0 (-0.35 0 0.005)
# Probe 1 (-0.35 0 0.0155)
# Probe 2 (-0.35 0 0.02653)
# Probe 3 (-0.35 0 0.0381)
# Probe 4 (-0.35 0 0.05026)
# Probe 5 (-0.35 0 0.06302)
# Probe 6 (-0.35 0 0.07642)
# Probe 7 (-0.35 0 0.08)
# Probe 8 (-0.35 0 0.09049)
# Probe 9 (-0.35 0 0.10527)
# Probe 10 (-0.35 0 0.12078)
# Probe 11 (-0.35 0 0.13707)
# Probe 12 (-0.35 0 0.15417)
# Probe 13 (-0.35 0 0.17213)
# Probe 14 (-0.35 0 0.19099)
# Probe 15 (-0.35 0 0.2)
# Probe 16 (-0.35 0 0.21079)
# Probe 17 (-0.35 0 0.23157)
# Probe 18 (-0.35 0 0.2534)
# Probe 19 (-0.35 0 0.27632)
# Probe 20 (-0.35 0 0.30039)
# Probe 21 (-0.35 0 0.32566)
# Probe 22 (-0.35 0 0.35219)
# Probe 23 (-0.35 0 0.38005)
# Probe 24 (-0.35 0 0.4093)
# Probe 25 (-0.35 0 0.44002)
# Probe 26 (-0.35 0 0.47227)
# Probe 27 (-0.35 0 0.50613)
# Probe 28 (-0.35 0 0.54169)
# Probe 29 (-0.35 0 0.57903)
# Probe 30 (-0.35 0 0.61823)
# Probe 31 (-0.35 0 0.65939)
# Probe 32 (-0.35 0 0.70261)
# Probe 33 (-0.35 0 0.74799)
# Probe 34 (-0.35 0 0.79564)
# Probe 35 (-0.35 0 0.84567)
# Probe 36 (-0.35 0 0.8982)
# Probe 37 (-0.35 0 0.95336)
# Probe 38 (-0.35 0 1.01128)
# Probe 39 (-0.35 0 1.0721)
# Probe 40 (-0.35 0 1.13595)
# Probe 41 (-0.35 0 1.203)
# Probe 42 (-0.35 0 1.2734)
# Probe 43 (-0.35 0 1.34732)
# Probe 44 (-0.35 0 1.42493)
# Probe 45 (-0.35 0 1.50643)
# Probe 46 (-0.35 0 1.592)
# Probe 47 (-0.35 0 1.68185)
# Probe 48 (-0.35 0 1.77619)
# Probe 49 (-0.35 0 1.87525)
# Probe 50 (-0.35 0 1.97927)
# Probe 51 (-0.35 0 2.08848)
# Probe 52 (-0.35 0 2.20315)
# Probe 53 (-0.35 0 2.32356)
# Probe 54 (-0.35 0 2.44999)
#       Probe             0             1             2             3             4             5             6             7             8             9            10            11            12            13            14            15            16            17            18            19            20            21            22            23            24            25            26            27            28            29            30            31            32            33            34            35            36            37            38            39            40            41            42            43            44            45            46            47            48            49            50            51            52            53            54
#        Time
        0.262             (2.51363 -0.562936 -0.186176)             (3.2672 -1.16653 -0.12399)             (2.97219 -1.81153 -0.387875)             (3.08347 -1.38258 -0.174742)             (3.01943 -0.227385 -0.506324)             (3.55725 -0.410349 -1.09133)             (3.91182 -0.0321264 -0.988304)             (3.85212 -0.207042 -0.919314)             (4.70041 -0.600886 -0.58282)             (5.94121 -1.29401 -0.614003)             (4.91115 -1.09507 -0.499158)             (4.70997 0.395779 -0.491571)             (4.94711 -0.2082 0.0279455)             (5.69008 -0.621059 -0.157151)             (5.65175 -0.383345 -0.0939427)             (5.58641 -0.243756 0.439498)             (5.41634 -0.0633068 1.00764)             (5.65737 -0.800013 1.04911)             (7.36956 -1.72009 -0.680849)             (6.89772 -1.38088 -0.747303)             (6.69909 -1.0126 -0.595442)             (7.07184 -0.817895 0.294417)             (7.44779 -0.403176 0.245492)             (7.32827 -0.293818 0.369907)             (7.31363 -0.263499 0.342405)             (7.62792 -0.261865 -0.0615119)             (8.45108 -0.170659 -0.145954)             (7.96482 -0.0423052 0.000315275)             (8.66853 0.116834 -0.877206)             (8.66853 0.116834 -0.877206)             (8.10528 0.560326 -0.320314)             (7.68715 1.11389 -0.161651)             (7.35583 1.37171 -0.105403)             (7.49307 1.05282 -0.0731742)             (8.48544 1.33342 -0.882585)             (8.7242 1.15884 -0.708927)             (9.0714 0.933242 -0.520365)             (8.89984 0.822658 -0.38052)             (-1e+300 -1e+300 -1e+300)             (-1e+300 -1e+300 -1e+300)             (-1e+300 -1e+300 -1e+300)             (-1e+300 -1e+300 -1e+300)             (-1e+300 -1e+300 -1e+300)             (-1e+300 -1e+300 -1e+300)             (-1e+300 -1e+300 -1e+300)             (-1e+300 -1e+300 -1e+300)             (-1e+300 -1e+300 -1e+300)             (-1e+300 -1e+300 -1e+300)             (-1e+300 -1e+300 -1e+300)             (-1e+300 -1e+300 -1e+300)             (-1e+300 -1e+300 -1e+300)             (-1e+300 -1e+300 -1e+300)             (-1e+300 -1e+300 -1e+300)             (-1e+300 -1e+300 -1e+300)             (-1e+300 -1e+300 -1e+300)
        0.264             (2.92582 -0.694891 -0.103255)             (3.18193 -1.48568 -0.476369)             (3.09203 -1.69807 -0.384006)             (3.12621 -0.997088 -0.249108)             (2.78393 -0.296765 -0.293313)             (3.55616 -0.13063 -0.342756)             (3.99378 0.188442 -0.314498)             (3.84785 0.126526 -0.165299)             (4.59265 -0.375557 0.0833584)             (5.35879 -0.946892 -1.17985)             (5.28537 -1.80481 -0.642638)             (4.60516 -0.407771 -0.46107)             (4.54098 0.073838 0.23583)             (5.15211 -0.229209 0.111584)             (5.15538 -0.0962244 0.0193864)             (5.19696 0.0182425 0.475163)             (5.22181 -0.185299 0.882433)             (5.33512 -0.656305 1.06177)             (6.79378 -1.10921 -0.164012)             (7.11145 -1.35454 -0.611706)             (6.96036 -1.44913 -0.737896)             (7.05666 -0.664209 0.0218667)             (7.65878 -0.430661 -0.0764427)             (7.44224 -0.137196 0.17956)             (7.41108 -0.0973579 0.214197)             (7.65232 -0.203438 -0.0576519)             (8.46528 -0.308198 -0.106141)             (7.95192 -0.0396621 -0.0479137)             (8.5714 0.102375 -0.806902)             (8.5714 0.102375 -0.806902)             (8.10573 0.633457 -0.341582)             (7.63265 1.21095 -0.194834)             (7.32181 1.44367 -0.136844)             (7.52975 1.07797 -0.0900093)             (8.49513 1.34562 -0.891442)             (8.69327 1.10999 -0.670503)             (9.00086 0.887197 -0.467424)             (8.85892 0.847427 -0.329943)             (-1e+300 -1e+300 -1e+300)             (-1e+300 -1e+300 -1e+300)             (-1e+300 -1e+300 -1e+300)             (-1e+300 -1e+300 -1e+300)             (-1e+300 -1e+300 -1e+300)             (-1e+300 -1e+300 -1e+300)             (-1e+300 -1e+300 -1e+300)             (-1e+300 -1e+300 -1e+300)             (-1e+300 -1e+300 -1e+300)             (-1e+300 -1e+300 -1e+300)             (-1e+300 -1e+300 -1e+300)             (-1e+300 -1e+300 -1e+300)             (-1e+300 -1e+300 -1e+300)             (-1e+300 -1e+300 -1e+300)             (-1e+300 -1e+300 -1e+300)             (-1e+300 -1e+300 -1e+300)             (-1e+300 -1e+300 -1e+300)
        0.266             (3.02245 -1.00732 -0.0250519)             (3.14149 -1.57834 -0.600206)             (3.18167 -1.29912 -0.240426)             (3.19314 -0.850454 -0.101862)             (2.77391 -0.368156 0.0678968)             (3.66236 -0.209631 0.31378)             (4.53578 -0.338254 0.394581)             (4.41606 -0.15614 0.440883)             (4.16364 0.172413 0.490392)             (4.93254 -0.0142695 -0.344283)             (5.62285 -1.89756 0.0234349)             (4.56706 -1.29245 -0.318405)             (4.19055 0.126588 0.159003)             (4.62427 0.148281 0.501335)             (5.14752 0.3716 0.229151)             (5.00214 0.347718 0.38957)             (5.12525 0.0107658 0.745826)             (5.33057 -0.241623 1.00083)             (6.48665 -0.452598 0.441759)             (7.1995 -1.31781 -0.0351647)             (7.18246 -1.59708 -0.457641)             (7.07799 -0.545319 -0.35528)             (7.76124 -0.53157 -0.33913)             (7.59852 -0.0222185 -0.0378831)             (7.53812 0.0300623 0.0436897)             (7.72197 -0.131398 -0.0603688)             (8.45532 -0.378312 -0.11094)             (7.97619 -0.0129656 -0.149451)             (8.47222 0.0942953 -0.718994)             (8.47222 0.0942953 -0.718994)             (8.10686 0.70045 -0.365496)             (7.58582 1.28844 -0.233353)             (7.29665 1.49462 -0.166801)             (7.56659 1.10229 -0.101006)             (8.502 1.35259 -0.870602)             (8.65127 1.06043 -0.628086)             (8.91345 0.858117 -0.399056)             (8.81187 0.897533 -0.267892)             (-1e+300 -1e+300 -1e+300)             (-1e+300 -1e+300 -1e+300)             (-1e+300 -1e+300 -1e+300)             (-1e+300 -1e+300 -1e+300)             (-1e+300 -1e+300 -1e+300)             (-1e+300 -1e+300 -1e+300)             (-1e+300 -1e+300 -1e+300)             (-1e+300 -1e+300 -1e+300)             (-1e+300 -1e+300 -1e+300)             (-1e+300 -1e+300 -1e+300)             (-1e+300 -1e+300 -1e+300)             (-1e+300 -1e+300 -1e+300)             (-1e+300 -1e+300 -1e+300)             (-1e+300 -1e+300 -1e+300)             (-1e+300 -1e+300 -1e+300)             (-1e+300 -1e+300 -1e+300)             (-1e+300 -1e+300 -1e+300)
        0.268             (2.7556 -1.31252 0.0212064)             (3.16627 -1.34279 -0.51071)             (3.12261 -1.09096 -0.148486)             (3.26688 -0.914118 -0.0785263)             (3.00997 -0.559658 0.160625)             (3.86468 -0.579162 0.434365)             (4.87011 -0.675477 0.590908)             (5.03626 -0.740898 0.601749)             (4.13904 0.102611 0.634332)             (4.59068 0.509406 0.408742)             (5.58203 -1.6831 0.641502)             (4.58938 -1.60805 0.185246)             (4.34758 -0.290358 0.0253777)             (4.3278 0.400062 0.820907)             (5.32995 0.686644 0.580852)             (5.0031 0.401236 0.277903)             (5.28111 0.240648 0.459151)             (5.49226 0.181719 0.841217)             (6.44608 -0.060815 0.804984)             (6.95215 -1.17054 0.49961)             (7.02442 -1.71382 -0.220368)             (6.99164 -0.580156 -0.594654)             (7.64184 -0.578862 -0.493793)             (7.76789 0.0260558 -0.23233)             (7.68051 0.099127 -0.136882)             (7.82471 -0.0559214 -0.0664009)             (8.40966 -0.362884 -0.1636)             (8.03744 0.010714 -0.280623)             (8.37826 0.0887631 -0.621071)             (8.37826 0.0887631 -0.621071)             (8.10523 0.756273 -0.395093)             (7.54506 1.34035 -0.276279)             (7.27969 1.51952 -0.194565)             (7.5984 1.12247 -0.106994)             (8.4999 1.34997 -0.822723)             (8.59525 1.01219 -0.586123)             (8.8147 0.845437 -0.321424)             (8.75363 0.96702 -0.200869)             (-1e+300 -1e+300 -1e+300)             (-1e+300 -1e+300 -1e+300)             (-1e+300 -1e+300 -1e+300)             (-1e+300 -1e+300 -1e+300)             (-1e+300 -1e+300 -1e+300)             (-1e+300 -1e+300 -1e+300)             (-1e+300 -1e+300 -1e+300)             (-1e+300 -1e+300 -1e+300)             (-1e+300 -1e+300 -1e+300)             (-1e+300 -1e+300 -1e+300)             (-1e+300 -1e+300 -1e+300)             (-1e+300 -1e+300 -1e+300)             (-1e+300 -1e+300 -1e+300)             (-1e+300 -1e+300 -1e+300)             (-1e+300 -1e+300 -1e+300)             (-1e+300 -1e+300 -1e+300)             (-1e+300 -1e+300 -1e+300)
         0.27             (2.42511 -1.36137 0.0679929)             (3.20408 -0.853482 -0.372085)             (2.99046 -1.13813 -0.112862)             (3.30543 -0.991369 -0.271224)             (3.28047 -0.933877 -0.116456)             (4.32422 -0.969914 -0.00423409)             (4.85186 -0.629582 -0.037856)             (4.92614 -0.766761 0.0525886)             (4.42038 -0.439916 0.225342)             (4.35822 0.261041 0.449484)             (5.24705 -1.81296 0.786467)             (4.80183 -1.43433 0.714552)             (4.86267 -0.759326 0.0856165)             (4.47593 0.486585 0.594601)             (5.17818 0.774044 0.586847)             (4.99132 0.264051 0.166991)             (5.49353 0.306483 0.289747)             (5.66043 0.130081 0.530944)             (6.58995 -0.086593 0.911636)             (6.4714 -1.00381 0.638433)             (6.62067 -1.8556 -0.237182)             (6.68547 -0.718535 -0.581376)             (7.32299 -0.4565 -0.504666)             (7.90614 0.00497124 -0.354779)             (7.81688 0.113345 -0.28143)             (7.94136 0.0105332 -0.0766783)             (8.32869 -0.278271 -0.2513)             (8.12298 0.00505617 -0.413376)             (8.29451 0.0833561 -0.522275)             (8.29451 0.0833561 -0.522275)             (8.09621 0.797133 -0.432221)             (7.50727 1.36452 -0.322238)             (7.26911 1.51758 -0.220073)             (7.62047 1.13791 -0.1108)             (8.48369 1.33693 -0.75413)             (8.52322 0.969441 -0.548386)             (8.70868 0.84982 -0.241365)             (8.67946 1.05065 -0.13647)             (-1e+300 -1e+300 -1e+300)             (-1e+300 -1e+300 -1e+300)             (-1e+300 -1e+300 -1e+300)             (-1e+300 -1e+300 -1e+300)             (-1e+300 -1e+300 -1e+300)             (-1e+300 -1e+300 -1e+300)             (-1e+300 -1e+300 -1e+300)             (-1e+300 -1e+300 -1e+300)             (-1e+300 -1e+300 -1e+300)             (-1e+300 -1e+300 -1e+300)             (-1e+300 -1e+300 -1e+300)             (-1e+300 -1e+300 -1e+300)             (-1e+300 -1e+300 -1e+300)             (-1e+300 -1e+300 -1e+300)             (-1e+300 -1e+300 -1e+300)             (-1e+300 -1e+300 -1e+300)             (-1e+300 -1e+300 -1e+300)
        0.272             (2.19099 -1.23901 0.114706)             (3.23766 -0.454079 -0.274695)             (2.93229 -1.08997 -0.0625309)             (3.22585 -1.00324 -0.364814)             (3.44523 -1.26524 -0.333879)             (4.56177 -0.928084 -0.502797)             (4.61321 -0.971994 -0.502808)             (4.53866 -0.975978 -0.431272)             (4.41687 -0.832906 -0.27742)             (4.27315 -0.414688 0.460724)             (5.15073 -1.99885 1.03677)             (5.1271 -1.66788 0.850959)             (5.3377 -0.886834 0.270309)             (4.97983 0.586567 0.0281273)             (5.03984 0.605891 0.0911498)             (5.09466 0.144241 0.156707)             (5.51434 0.267527 0.457452)             (5.86787 0.0497615 0.467405)             (6.61369 -0.322768 1.00759)             (5.99674 -1.00049 0.49713)             (6.26429 -1.87825 -0.283043)             (6.24478 -0.736726 -0.415331)             (6.90758 -0.177494 -0.328478)             (7.97888 -0.0497725 -0.360704)             (7.94269 0.093265 -0.337767)             (8.07275 0.0576364 -0.0934874)             (8.24394 -0.164515 -0.348392)             (8.23309 -0.0435346 -0.527067)             (8.24949 0.0788191 -0.433363)             (8.24949 0.0788191 -0.433363)             (8.10125 0.824469 -0.478211)             (7.49565 1.36271 -0.370455)             (7.28913 1.49353 -0.24527)             (7.65606 1.15187 -0.118209)             (8.47673 1.31779 -0.674132)             (8.46119 0.939567 -0.517812)             (8.62461 0.87471 -0.165405)             (8.61291 1.14584 -0.0820102)             (-1e+300 -1e+300 -1e+300)             (-1e+300 -1e+300 -1e+300)             (-1e+300 -1e+300 -1e+300)             (-1e+300 -1e+300 -1e+300)             (-1e+300 -1e+300 -1e+300)             (-1e+300 -1e+300 -1e+300)             (-1e+300 -1e+300 -1e+300)             (-1e+300 -1e+300 -1e+300)             (-1e+300 -1e+300 -1e+300)             (-1e+300 -1e+300 -1e+300)             (-1e+300 -1e+300 -1e+300)             (-1e+300 -1e+300 -1e+300)             (-1e+300 -1e+300 -1e+300)             (-1e+300 -1e+300 -1e+300)             (-1e+300 -1e+300 -1e+300)             (-1e+300 -1e+300 -1e+300)             (-1e+300 -1e+300 -1e+300)
        0.274             (2.0854 -1.08843 0.157995)             (3.26806 -0.333044 -0.176186)             (2.99827 -0.737792 0.0262225)             (3.09298 -0.900014 -0.0759673)             (3.51416 -1.15073 -0.0522358)             (4.18647 -0.738432 -0.178091)             (4.34204 -1.08836 -0.382276)             (4.30198 -1.11259 -0.51877)             (4.26706 -1.20582 -0.43639)             (4.27864 -1.35745 0.75649)             (5.39442 -1.84881 1.24984)             (5.34275 -1.86034 1.03506)             (5.09365 -0.903731 0.438148)             (5.09116 0.898325 -0.243362)             (5.14778 0.401951 -0.115097)             (5.31427 0.252564 0.372614)             (5.4819 0.176936 0.630986)             (5.86469 0.164766 0.761563)             (6.28494 -0.496169 1.11011)             (5.58064 -1.11311 0.307488)             (5.99097 -1.78964 -0.20045)             (5.81005 -0.545155 -0.143292)             (6.43868 0.235295 0.0929441)             (7.91729 -0.0822035 -0.205857)             (8.00636 0.0596414 -0.256206)             (8.1748 0.0761766 -0.101972)             (8.14506 -0.0701116 -0.414484)             (8.31899 -0.138064 -0.599277)             (8.22483 0.0726739 -0.3557)             (8.22483 0.0726739 -0.3557)             (8.09537 0.834303 -0.524391)             (7.48644 1.33526 -0.412509)             (7.31513 1.45 -0.265063)             (7.68102 1.16324 -0.129037)             (8.45446 1.29351 -0.587871)             (8.38598 0.924781 -0.492089)             (8.53934 0.9185 -0.0958307)             (8.52767 1.24502 -0.0415475)             (-1e+300 -1e+300 -1e+300)             (-1e+300 -1e+300 -1e+300)             (-1e+300 -1e+300 -1e+300)             (-1e+300 -1e+300 -1e+300)             (-1e+300 -1e+300 -1e+300)             (-1e+300 -1e+300 -1e+300)             (-1e+300 -1e+300 -1e+300)             (-1e+300 -1e+300 -1e+300)             (-1e+300 -1e+300 -1e+300)             (-1e+300 -1e+300 -1e+300)             (-1e+300 -1e+300 -1e+300)             (-1e+300 -1e+300 -1e+300)             (-1e+300 -1e+300 -1e+300)             (-1e+300 -1e+300 -1e+300)             (-1e+300 -1e+300 -1e+300)             (-1e+300 -1e+300 -1e+300)             (-1e+300 -1e+300 -1e+300)
        0.276             (2.18731 -0.925557 0.220073)             (3.32306 -0.350879 -0.0703577)             (3.23498 -0.269999 0.0947693)             (3.14231 -0.642089 0.30203)             (3.44977 -0.693644 0.531816)             (3.77224 -0.224055 0.685727)             (4.14577 -0.546163 0.0749564)             (4.34526 -0.812199 -0.0953216)             (4.60527 -1.22065 0.106985)             (4.70606 -1.57321 0.911672)             (5.33147 -1.90151 0.988435)             (5.32658 -1.85581 0.935965)             (4.60338 -0.73549 0.238796)             (4.9228 0.56511 -0.217684)             (5.38467 0.436136 0.158239)             (5.51773 0.459388 0.484665)             (5.42789 0.185291 0.567563)             (5.75033 -0.23886 0.727498)             (5.8252 -0.619553 0.896012)             (5.31033 -1.17926 0.149904)             (5.78887 -1.67516 1.84739e-05)             (5.55099 -0.216492 0.263562)             (6.10621 0.715431 0.770366)             (7.71673 -0.040442 0.111663)             (7.99469 0.0305381 -0.0305421)             (8.24844 0.0694314 -0.0863621)             (8.06538 -0.0230223 -0.4201)             (8.38173 -0.260552 -0.621345)             (8.24407 0.0652394 -0.297979)             (8.24407 0.0652394 -0.297979)             (8.10092 0.82696 -0.568479)             (7.50384 1.28575 -0.448042)             (7.37038 1.39331 -0.282774)             (7.72199 1.17249 -0.150617)             (8.44579 1.26646 -0.506238)             (8.32827 0.926481 -0.472827)             (8.48216 0.978486 -0.0372344)             (8.45318 1.34086 -0.0199927)             (-1e+300 -1e+300 -1e+300)             (-1e+300 -1e+300 -1e+300)             (-1e+300 -1e+300 -1e+300)             (-1e+300 -1e+300 -1e+300)             (-1e+300 -1e+300 -1e+300)             (-1e+300 -1e+300 -1e+300)             (-1e+300 -1e+300 -1e+300)             (-1e+300 -1e+300 -1e+300)             (-1e+300 -1e+300 -1e+300)             (-1e+300 -1e+300 -1e+300)             (-1e+300 -1e+300 -1e+300)             (-1e+300 -1e+300 -1e+300)             (-1e+300 -1e+300 -1e+300)             (-1e+300 -1e+300 -1e+300)             (-1e+300 -1e+300 -1e+300)             (-1e+300 -1e+300 -1e+300)             (-1e+300 -1e+300 -1e+300)
        0.278             (2.4756 -0.739782 0.298917)             (3.33663 -0.330566 -0.0439404)             (3.60415 0.0213526 0.0264418)             (3.42406 -0.306071 0.359778)             (3.63246 -0.212757 0.823628)             (3.65338 0.052062 1.11411)             (3.89776 -0.0496873 0.634518)             (4.41618 -0.476518 0.542672)             (5.11441 -1.17794 0.827705)             (4.96221 -1.36045 0.896929)             (4.79751 -1.94374 0.746467)             (5.31258 -1.55297 0.576448)             (4.46217 -0.00723092 -0.339342)             (4.79945 0.18876 -0.00854783)             (5.61381 0.572615 0.0788373)             (5.75757 0.455297 0.179307)             (5.36518 0.161272 0.326152)             (5.87386 -0.918805 0.761881)             (5.62012 -0.91468 0.297265)             (5.26358 -1.19271 0.0750238)             (5.62878 -1.57495 0.263547)             (5.50921 0.182775 0.83304)             (6.19048 1.03632 1.58911)             (7.37218 0.0890005 0.543414)             (7.87032 0.0149493 0.302621)             (8.26607 0.0474846 -0.0258991)             (8.00076 -0.0283912 -0.344782)             (8.39919 -0.383866 -0.58177)             (8.28694 0.0535532 -0.258958)             (8.28694 0.0535532 -0.258958)             (8.09861 0.799391 -0.599014)             (7.52957 1.21485 -0.469471)             (7.43373 1.3261 -0.295244)             (7.76151 1.177 -0.182752)             (8.43465 1.23534 -0.433668)             (8.27309 0.940855 -0.45696)             (8.43479 1.04767 0.0100673)             (8.37337 1.42191 -0.0171735)             (-1e+300 -1e+300 -1e+300)             (-1e+300 -1e+300 -1e+300)             (-1e+300 -1e+300 -1e+300)             (-1e+300 -1e+300 -1e+300)             (-1e+300 -1e+300 -1e+300)             (-1e+300 -1e+300 -1e+300)             (-1e+300 -1e+300 -1e+300)             (-1e+300 -1e+300 -1e+300)             (-1e+300 -1e+300 -1e+300)             (-1e+300 -1e+300 -1e+300)             (-1e+300 -1e+300 -1e+300)             (-1e+300 -1e+300 -1e+300)             (-1e+300 -1e+300 -1e+300)             (-1e+300 -1e+300 -1e+300)             (-1e+300 -1e+300 -1e+300)             (-1e+300 -1e+300 -1e+300)             (-1e+300 -1e+300 -1e+300)
         0.28             (2.87121 -0.516504 0.318917)             (3.30655 -0.201069 -0.142374)             (3.87666 0.144656 -0.142402)             (3.83773 -0.0122716 0.301593)             (4.15113 -0.00201193 0.641027)             (3.83455 -0.164499 0.611459)             (3.78639 -0.144325 0.650183)             (4.27199 -0.559208 0.756858)             (4.86038 -1.54707 0.957125)             (4.47647 -1.57363 0.833092)             (4.39577 -1.49245 0.66867)             (4.82952 -1.11821 0.206731)             (4.52477 0.70513 -0.703794)             (4.80914 0.386734 0.162541)             (5.69312 0.84859 -0.0378871)             (5.87625 0.442981 -0.0929008)             (5.35601 0.0302631 0.200621)             (5.93371 -1.07166 0.604747)             (5.65937 -1.38664 -0.114483)             (5.40664 -1.20565 0.192335)             (5.5199 -1.47155 0.54716)             (5.58127 0.616428 1.52797)             (6.7922 1.08198 2.14876)             (6.96862 0.266727 0.983264)             (7.64054 0.0262539 0.670638)             (8.22474 0.0302612 0.0796673)             (7.95789 -0.063818 -0.198414)             (8.37683 -0.47377 -0.482364)             (8.3406 0.0389965 -0.237537)             (8.3406 0.0389965 -0.237537)             (8.08236 0.755099 -0.607566)             (7.5566 1.1314 -0.472379)             (7.49561 1.25785 -0.30083)             (7.79478 1.17953 -0.224857)             (8.41831 1.20507 -0.373674)             (8.21948 0.968615 -0.441914)             (8.39239 1.12388 0.0467868)             (8.28693 1.48355 -0.032933)             (-1e+300 -1e+300 -1e+300)             (-1e+300 -1e+300 -1e+300)             (-1e+300 -1e+300 -1e+300)             (-1e+300 -1e+300 -1e+300)             (-1e+300 -1e+300 -1e+300)             (-1e+300 -1e+300 -1e+300)             (-1e+300 -1e+300 -1e+300)             (-1e+300 -1e+300 -1e+300)             (-1e+300 -1e+300 -1e+300)             (-1e+300 -1e+300 -1e+300)             (-1e+300 -1e+300 -1e+300)             (-1e+300 -1e+300 -1e+300)             (-1e+300 -1e+300 -1e+300)             (-1e+300 -1e+300 -1e+300)             (-1e+300 -1e+300 -1e+300)             (-1e+300 -1e+300 -1e+300)             (-1e+300 -1e+300 -1e+300)
        0.282             (3.25229 -0.286997 0.223397)             (3.32026 0.0168097 -0.281912)             (3.91172 0.289264 -0.205897)             (4.17836 0.00778345 0.243517)             (4.49309 -0.364652 0.303405)             (4.05416 -0.609791 -0.0784815)             (4.0278 -0.748203 0.396653)             (4.25571 -1.10801 0.706828)             (4.54632 -1.64195 0.973164)             (4.23606 -1.33285 0.877786)             (4.18657 -0.801945 0.653399)             (4.23974 -0.52932 -0.104627)             (4.51991 0.832258 -0.537497)             (4.98014 0.58394 0.241955)             (5.51026 1.03689 0.154335)             (5.80974 0.479611 -0.0870662)             (5.34418 -0.243587 0.257811)             (5.68236 -0.540885 0.392477)             (5.55415 -1.51935 0.195638)             (5.5363 -1.16307 0.509735)             (5.46355 -1.32214 0.811786)             (5.67274 1.01631 2.01688)             (7.2988 1.19682 2.07949)             (6.67355 0.409915 1.32092)             (7.35796 0.0637325 0.999943)             (8.13822 0.0264426 0.203665)             (7.94351 -0.10191 -0.0169054)             (8.33053 -0.509172 -0.339613)             (8.39275 0.0194162 -0.230232)             (8.39275 0.0194162 -0.230232)             (8.05014 0.69614 -0.588238)             (7.58019 1.04217 -0.454024)             (7.54913 1.19455 -0.298065)             (7.8191 1.17961 -0.273721)             (8.39639 1.17651 -0.327202)             (8.16896 1.00486 -0.425381)             (8.35243 1.19935 0.0745464)             (8.19547 1.51863 -0.0643437)             (-1e+300 -1e+300 -1e+300)             (-1e+300 -1e+300 -1e+300)             (-1e+300 -1e+300 -1e+300)             (-1e+300 -1e+300 -1e+300)             (-1e+300 -1e+300 -1e+300)             (-1e+300 -1e+300 -1e+300)             (-1e+300 -1e+300 -1e+300)             (-1e+300 -1e+300 -1e+300)             (-1e+300 -1e+300 -1e+300)             (-1e+300 -1e+300 -1e+300)             (-1e+300 -1e+300 -1e+300)             (-1e+300 -1e+300 -1e+300)             (-1e+300 -1e+300 -1e+300)             (-1e+300 -1e+300 -1e+300)             (-1e+300 -1e+300 -1e+300)             (-1e+300 -1e+300 -1e+300)             (-1e+300 -1e+300 -1e+300)
        0.284             (3.45569 -0.119307 0.0514153)             (3.37407 0.279545 -0.34432)             (3.81244 0.416509 -0.137987)             (4.03266 -0.360006 -0.156738)             (4.47299 -0.83733 -0.342145)             (4.54346 -1.0302 -0.273455)             (4.53719 -1.3923 0.344012)             (4.54371 -1.60433 0.657385)             (4.6007 -1.55517 1.13658)             (4.09403 -0.80788 0.91466)             (4.00253 -0.308976 0.613617)             (4.23208 0.104067 -0.0583746)             (4.40007 0.883159 -0.0713034)             (5.16984 0.609567 0.27869)             (5.32688 0.942037 0.0115808)             (5.57912 0.577926 -0.0201095)             (5.3465 -0.425403 0.339253)             (5.59202 -0.195365 0.475671)             (5.433 -1.00603 0.953342)             (5.5076 -1.00996 0.866935)             (5.44322 -1.07319 1.02034)             (5.78644 1.20839 2.04184)             (7.18129 1.42895 1.6316)             (6.61505 0.445808 1.49163)             (7.10372 0.104067 1.23725)             (8.03196 0.0320403 0.304728)             (7.96071 -0.12506 0.148963)             (8.27659 -0.482093 -0.183767)             (8.43338 -0.00501832 -0.233446)             (8.43338 -0.00501832 -0.233446)             (8.00472 0.627813 -0.541461)             (7.5996 0.957203 -0.415728)             (7.59195 1.14355 -0.287195)             (7.83562 1.17931 -0.325351)             (8.37271 1.1526 -0.29386)             (8.12746 1.04607 -0.406169)             (8.31785 1.26866 0.0945138)             (8.10516 1.52406 -0.107593)             (-1e+300 -1e+300 -1e+300)             (-1e+300 -1e+300 -1e+300)             (-1e+300 -1e+300 -1e+300)             (-1e+300 -1e+300 -1e+300)             (-1e+300 -1e+300 -1e+300)             (-1e+300 -1e+300 -1e+300)             (-1e+300 -1e+300 -1e+300)             (-1e+300 -1e+300 -1e+300)             (-1e+300 -1e+300 -1e+300)             (-1e+300 -1e+300 -1e+300)             (-1e+300 -1e+300 -1e+300)             (-1e+300 -1e+300 -1e+300)             (-1e+300 -1e+300 -1e+300)             (-1e+300 -1e+300 -1e+300)             (-1e+300 -1e+300 -1e+300)             (-1e+300 -1e+300 -1e+300)             (-1e+300 -1e+300 -1e+300)