# Probe 0 (0 0 0.005)
# Probe 1 (0 0 0.0155)
# Probe 2 (0 0 0.02653)
# Probe 3 (0 0 0.0381)
# Probe 4 (0 0 0.05026)
# Probe 5 (0 0 0.06302)
# Probe 6 (0 0 0.07642)
# Probe 7 (0 0 0.08)
# Probe 8 (0 0 0.09049)
# Probe 9 (0 0 0.10527)
# Probe 10 (0 0 0.12078)
# Probe 11 (0 0 0.13707)
# Probe 12 (0 0 0.15417)
# Probe 13 (0 0 0.17213)
# Probe 14 (0 0 0.19099)
# Probe 15 (0 0 0.2)
# Probe 16 (0 0 0.21079)
# Probe 17 (0 0 0.23157)
# Probe 18 (0 0 0.2534)
# Probe 19 (0 0 0.27632)
# Probe 20 (0 0 0.30039)
# Probe 21 (0 0 0.32566)
# Probe 22 (0 0 0.35219)
# Probe 23 (0 0 0.38005)
# Probe 24 (0 0 0.4093)
# Probe 25 (0 0 0.44002)
# Probe 26 (0 0 0.47227)
# Probe 27 (0 0 0.50613)
# Probe 28 (0 0 0.54169)
# Probe 29 (0 0 0.57903)
# Probe 30 (0 0 0.61823)
# Probe 31 (0 0 0.65939)
# Probe 32 (0 0 0.70261)
# Probe 33 (0 0 0.74799)
# Probe 34 (0 0 0.79564)
# Probe 35 (0 0 0.84567)
# Probe 36 (0 0 0.8982)
# Probe 37 (0 0 0.95336)
# Probe 38 (0 0 1.01128)
# Probe 39 (0 0 1.0721)
# Probe 40 (0 0 1.13595)
# Probe 41 (0 0 1.203)
# Probe 42 (0 0 1.2734)
# Probe 43 (0 0 1.34732)
# Probe 44 (0 0 1.42493)
# Probe 45 (0 0 1.50643)
# Probe 46 (0 0 1.592)
# Probe 47 (0 0 1.68185)
# Probe 48 (0 0 1.77619)
# Probe 49 (0 0 1.87525)
# Probe 50 (0 0 1.97927)
# Probe 51 (0 0 2.08848)
# Probe 52 (0 0 2.20315)
# Probe 53 (0 0 2.32356)
# Probe 54 (0 0 2.44999)
#       Probe             0             1             2             3             4             5             6             7             8             9            10            11            12            13            14            15            16            17            18            19            20            21            22            23            24            25            26            27            28            29            30            31            32            33            34            35            36            37            38            39            40            41            42            43            44            45            46            47            48            49            50            51            52            53            54
#        Time
        3.522       -1e+300       -1e+300       -1e+300       -1e+300       -1e+300       -1e+300       -1e+300      -6.45704      -10.0146      -8.22095      -4.88422       -4.1454      -3.39941      -2.37715      -1.72603      -1.38188     -0.927356     -0.430658     -0.148509      0.235692      0.479915      0.766339      0.937714       1.03016       1.20782       1.45519       1.50465       1.55592       1.70561       1.70561       1.71964        1.6541         1.744       1.82074       1.90155       1.92248       1.92469        1.9326       -1e+300       -1e+300       -1e+300       -1e+300       -1e+300       -1e+300       -1e+300       -1e+300       -1e+300       -1e+300       -1e+300       -1e+300       -1e+300       -1e+300       -1e+300       -1e+300       -1e+300
        3.524       -1e+300       -1e+300       -1e+300       -1e+300       -1e+300       -1e+300       -1e+300      -11.0784      -11.4472      -11.6948      -8.09596      -9.06012      -8.67083      -7.91731      -7.29489      -7.03897      -6.77414      -6.43017      -5.99943      -5.64216      -5.45005      -5.21255      -5.03511      -4.90711      -4.71458      -4.49784      -4.45865      -4.41128       -4.2495       -4.2495      -4.23052      -4.25685      -4.17661      -4.09676      -4.02552      -3.99726      -3.99556      -4.00077       -1e+300       -1e+300       -1e+300       -1e+300       -1e+300       -1e+300       -1e+300       -1e+300       -1e+300       -1e+300       -1e+300       -1e+300       -1e+300       -1e+300       -1e+300       -1e+300       -1e+300
        3.526       -1e+300       -1e+300       -1e+300       -1e+300       -1e+300       -1e+300       -1e+300      -10.9523      -13.5732      -8.13144      -7.71019      -8.83189      -8.45452      -7.89204      -7.32122      -7.24505      -7.08165      -6.61871      -5.88529      -5.51454      -5.41749      -5.15522      -4.99431      -4.87465      -4.67245      -4.49695      -4.45314      -4.37854      -4.24337      -4.24337      -4.19725      -4.18417       -4.1053       -4.0146      -3.94212      -3.89998      -3.88864      -3.90022       -1e+300       -1e+300       -1e+300       -1e+300       -1e+300       -1e+300       -1e+300       -1e+300       -1e+300       -1e+300       -1e+300       -1e+300       -1e+300       -1e+300       -1e+300       -1e+300       -1e+300
        3.528       -1e+300       -1e+300       -1e+300       -1e+300       -1e+300       -1e+300       -1e+300      -7.55919      -8.36089      -5.02644      -2.95106      -3.72273      -3.47426      -2.74877      -2.54299      -2.46859      -2.26479      -1.53549     -0.742418     -0.316042     -0.172644     0.0936029      0.228563      0.368445       0.54357      0.662248      0.715042      0.812547       0.88978       0.88978      0.965289       1.00517       1.08042       1.17753       1.25124       1.30851       1.33191       1.31595       -1e+300       -1e+300       -1e+300       -1e+300       -1e+300       -1e+300       -1e+300       -1e+300       -1e+300       -1e+300       -1e+300       -1e+300       -1e+300       -1e+300       -1e+300       -1e+300       -1e+300
         3.53       -1e+300       -1e+300       -1e+300       -1e+300       -1e+300       -1e+300       -1e+300      -9.95963      -12.3753      -10.6976      -7.99433      -7.60796      -7.44047      -6.85615      -6.64157      -6.48252      -6.12977      -5.27858      -4.56223      -4.19774      -3.96536      -3.71734       -3.6221      -3.49473      -3.35148      -3.25993      -3.20043      -3.10757      -3.04388      -3.04388      -2.96343      -2.91811      -2.86319      -2.77243      -2.72091      -2.65365      -2.62035      -2.64065       -1e+300       -1e+300       -1e+300       -1e+300       -1e+300       -1e+300       -1e+300       -1e+300       -1e+300       -1e+300       -1e+300       -1e+300       -1e+300       -1e+300       -1e+300       -1e+300       -1e+300
        3.532       -1e+300       -1e+300       -1e+300       -1e+300       -1e+300       -1e+300       -1e+300      -16.4462       -18.453      -17.8923      -14.0685      -12.9588      -12.5353       -12.137       -11.613      -11.2911      -10.8871        -10.15      -9.43729      -9.03381      -8.77958      -8.57921      -8.50654      -8.35453      -8.25089      -8.13868      -8.06784      -7.98586      -7.90315      -7.90315      -7.81912      -7.76167      -7.72261      -7.63471      -7.58762       -7.5098      -7.46479       -7.4805       -1e+300       -1e+300       -1e+300       -1e+300       -1e+300       -1e+300       -1e+300       -1e+300       -1e+300       -1e+300       -1e+300       -1e+300       -1e+300       -1e+300       -1e+300       -1e+300       -1e+300
        3.534       -1e+300       -1e+300       -1e+300       -1e+300       -1e+300       -1e+300       -1e+300      -11.4886      -12.2081      -14.0044      -10.5871      -8.94295      -8.32508      -7.71449      -7.05143      -6.66146      -6.24065       -5.8139      -5.28552      -4.72646      -4.42363      -4.23976      -4.17139      -3.97361      -3.88219      -3.73818      -3.65814       -3.5883      -3.51996      -3.51996      -3.43748      -3.35446      -3.32437      -3.23329       -3.1778      -3.08448      -3.02423      -3.02728       -1e+300       -1e+300       -1e+300       -1e+300       -1e+300       -1e+300       -1e+300       -1e+300       -1e+300       -1e+300       -1e+300       -1e+300       -1e+300       -1e+300       -1e+300       -1e+300       -1e+300
        3.536       -1e+300       -1e+300       -1e+300       -1e+300       -1e+300       -1e+300       -1e+300      -10.6724      -11.0445      -14.0811       -11.254      -9.79444      -9.31062       -8.2315      -7.53343        -7.287      -7.07901      -6.74202      -6.11483      -5.75021      -5.44385      -5.22306      -5.15579      -4.96265       -4.8687      -4.72998      -4.65419      -4.60855      -4.52805      -4.52805      -4.46733      -4.36887      -4.36461      -4.27696      -4.24351        -4.144      -4.07436      -4.06846       -1e+300       -1e+300       -1e+300       -1e+300       -1e+300       -1e+300       -1e+300       -1e+300       -1e+300       -1e+300       -1e+300       -1e+300       -1e+300       -1e+300       -1e+300       -1e+300       -1e+300
        3.538       -1e+300       -1e+300       -1e+300       -1e+300       -1e+300       -1e+300       -1e+300      -10.1905      -11.2407      -11.3689      -11.8536      -10.9006       -10.174      -9.29943      -8.85177      -8.67445      -8.54464      -8.28068      -7.59827      -7.14029      -6.87318      -6.61704      -6.54397      -6.38311      -6.29545      -6.13811      -6.07864      -6.04658      -5.94471      -5.94471      -5.89946      -5.77343      -5.78903       -5.7048      -5.67503      -5.56936      -5.49276      -5.47713       -1e+300       -1e+300       -1e+300       -1e+300       -1e+300       -1e+300       -1e+300       -1e+300       -1e+300       -1e+300       -1e+300       -1e+300       -1e+300       -1e+300       -1e+300       -1e+300       -1e+300
         3.54       -1e+300       -1e+300       -1e+300       -1e+300       -1e+300       -1e+300       -1e+300      -4.19788      -6.11562      -6.75333      -7.69079      -7.38742      -6.64959       -5.8779      -5.45237      -5.30879      -5.36228      -5.29163       -4.5113      -3.77093      -3.48939      -3.24041      -3.15535      -2.98576      -2.89327      -2.71657      -2.66741      -2.64726      -2.53922      -2.53922      -2.48859      -2.34159      -2.36227      -2.27381      -2.23524      -2.12067      -2.03267      -2.00444       -1e+300       -1e+300       -1e+300       -1e+300       -1e+300       -1e+300       -1e+300       -1e+300       -1e+300       -1e+300       -1e+300       -1e+300       -1e+300       -1e+300       -1e+300       -1e+300       -1e+300
        3.542       -1e+300       -1e+300       -1e+300       -1e+300       -1e+300       -1e+300       -1e+300       1.69909      -1.10437      -2.23689       -3.4029      -3.63816      -2.94861       -2.1718      -1.59204      -1.49137      -1.50892      -1.24075     -0.437721    -0.0193804      0.239108      0.482079      0.573459       0.76098      0.852375       1.07337       1.11913       1.11296       1.21126       1.21126       1.27375        1.4363       1.41001        1.5091       1.56151       1.68148       1.78029       1.81079       -1e+300       -1e+300       -1e+300       -1e+300       -1e+300       -1e+300       -1e+300       -1e+300       -1e+300       -1e+300       -1e+300       -1e+300       -1e+300       -1e+300       -1e+300       -1e+300       -1e+300
        3.544       -1e+300       -1e+300       -1e+300       -1e+300       -1e+300       -1e+300       -1e+300      -4.67011      -7.38263      -6.76237      -8.44862      -8.57272       -8.2763      -7.74459      -7.73251      -7.61209      -7.17638      -6.03625       -5.5303      -5.30877      -5.11669      -4.86702      -4.78432      -4.61096      -4.52623      -4.26115      -4.21943      -4.25795      -4.14395      -4.14395      -4.07358      -3.92729      -3.94696       -3.8694      -3.80259      -3.68667      -3.58581      -3.56246       -1e+300       -1e+300       -1e+300       -1e+300       -1e+300       -1e+300       -1e+300       -1e+300       -1e+300       -1e+300       -1e+300       -1e+300       -1e+300       -1e+300       -1e+300       -1e+300       -1e+300
        3.546       -1e+300       -1e+300       -1e+300       -1e+300       -1e+300       -1e+300       -1e+300      -8.48063      -11.0869      -8.87355      -9.97463      -10.4509      -10.4498      -10.1437      -10.1876      -9.78484      -9.09324      -8.27768      -7.84082       -7.6455      -7.53942      -7.28102      -7.20653       -7.0338      -6.95578       -6.6493      -6.61123      -6.64227      -6.52696      -6.52696      -6.44433      -6.33648      -6.33156      -6.27236      -6.16548      -6.05793      -5.95017      -5.91883       -1e+300       -1e+300       -1e+300       -1e+300       -1e+300       -1e+300       -1e+300       -1e+300       -1e+300       -1e+300       -1e+300       -1e+300       -1e+300       -1e+300       -1e+300       -1e+300       -1e+300
        3.548       -1e+300       -1e+300       -1e+300       -1e+300       -1e+300       -1e+300       -1e+300      0.229982     -0.523614     -0.255506      -1.40138      -2.16974      -2.04444      -1.42853      -1.37668      -0.92817     -0.484553     -0.113953      0.297601      0.516587      0.594711      0.844273       0.91182       1.11828       1.19547        1.5281       1.58064       1.58747       1.64427       1.64427       1.73357       1.84107       1.86959       1.91802       2.07083       2.17687       2.28313       2.29799       -1e+300       -1e+300       -1e+300       -1e+300       -1e+300       -1e+300       -1e+300       -1e+300       -1e+300       -1e+300       -1e+300       -1e+300       -1e+300       -1e+300       -1e+300       -1e+300       -1e+300
         3.55       -1e+300       -1e+300       -1e+300       -1e+300       -1e+300       -1e+300       -1e+300      -2.50246      -3.64792      -4.38775      -5.36545      -5.50664      -5.51112      -4.91785      -4.82561      -4.36074      -4.07909      -3.73755       -3.4131      -3.16211      -3.03557      -2.83141      -2.78858      -2.59366      -2.51165      -2.18993      -2.12978      -2.06816      -2.00245      -2.00245      -1.93752      -1.84425      -1.79641      -1.75242      -1.56308      -1.46719      -1.36258       -1.3443       -1e+300       -1e+300       -1e+300       -1e+300       -1e+300       -1e+300       -1e+300       -1e+300       -1e+300       -1e+300       -1e+300       -1e+300       -1e+300       -1e+300       -1e+300       -1e+300       -1e+300
        3.552       -1e+300       -1e+300       -1e+300       -1e+300       -1e+300       -1e+300       -1e+300      -5.61384      -9.05449      -8.96744      -9.41534       -9.0375      -8.70792      -9.04892      -8.57281      -8.00528      -7.68075      -7.38878      -7.11808       -6.8699      -6.72367      -6.55046      -6.52498      -6.32355      -6.21358      -5.90413      -5.84068      -5.72876      -5.62741      -5.62741      -5.58854      -5.49965       -5.4487      -5.40632      -5.21777      -5.13141      -5.01475      -5.00729       -1e+300       -1e+300       -1e+300       -1e+300       -1e+300       -1e+300       -1e+300       -1e+300       -1e+300       -1e+300       -1e+300       -1e+300       -1e+300       -1e+300       -1e+300       -1e+300       -1e+300
        3.554       -1e+300       -1e+300       -1e+300       -1e+300       -1e+300       -1e+300       -1e+300      -4.88419      -6.29801      -7.01941      -6.70604      -5.75656      -5.86034      -5.61981      -5.13511       -4.7504      -4.55895      -4.22908      -3.89053      -3.67142      -3.53274      -3.34095      -3.33138      -3.09156      -2.95417      -2.63393       -2.5623       -2.3996      -2.30517      -2.30517      -2.30306       -2.2297      -2.11393      -2.04424      -1.86579       -1.8098      -1.68686      -1.70884       -1e+300       -1e+300       -1e+300       -1e+300       -1e+300       -1e+300       -1e+300       -1e+300       -1e+300       -1e+300       -1e+300       -1e+300       -1e+300       -1e+300       -1e+300       -1e+300       -1e+300
        3.556       -1e+300       -1e+300       -1e+300       -1e+300       -1e+300       -1e+300       -1e+300      -3.69631      -10.7837      -5.94233      -5.18959      -4.83563      -4.37435      -3.75217      -3.21164      -2.91792      -2.71983      -2.26866      -1.83265      -1.64491      -1.50295       -1.2557      -1.23077     -0.984324     -0.789944     -0.502012     -0.421172     -0.201309     -0.148542     -0.148542     -0.163076    -0.0725975     0.0507428      0.108533      0.315391      0.376993       0.47743       0.45607       -1e+300       -1e+300       -1e+300       -1e+300       -1e+300       -1e+300       -1e+300       -1e+300       -1e+300       -1e+300       -1e+300       -1e+300       -1e+300       -1e+300       -1e+300       -1e+300       -1e+300
        3.558       -1e+300       -1e+300       -1e+300       -1e+300       -1e+300       -1e+300       -1e+300      -5.01953      -8.01736      -6.70782      -6.44874      -6.16489      -5.23936      -4.36958       -3.6645      -3.36029      -3.09048       -2.6441      -2.11666      -1.85106       -1.6947      -1.43099      -1.39614      -1.03539     -0.868329     -0.658046     -0.584046     -0.334154     -0.257536     -0.257536     -0.314276     -0.227731     -0.074649    -0.0226789      0.180792      0.212001      0.312513      0.267424       -1e+300       -1e+300       -1e+300       -1e+300       -1e+300       -1e+300       -1e+300       -1e+300       -1e+300       -1e+300       -1e+300       -1e+300       -1e+300       -1e+300       -1e+300       -1e+300       -1e+300
         3.56       -1e+300       -1e+300       -1e+300       -1e+300       -1e+300       -1e+300       -1e+300       -5.2069      -9.50402         -7.54      -6.73063      -5.48918      -4.73815      -3.64096      -2.81453      -2.32726      -2.09688       -1.6415      -1.00941     -0.724708     -0.535831     -0.262344     -0.190859     0.0709844      0.318082      0.503115      0.576006       0.81943      0.797891      0.797891      0.850726      0.952179       1.12209       1.19168        1.3946        1.4121       1.51643       1.44255       -1e+300       -1e+300       -1e+300       -1e+300       -1e+300       -1e+300       -1e+300       -1e+300       -1e+300       -1e+300       -1e+300       -1e+300       -1e+300       -1e+300       -1e+300       -1e+300       -1e+300
        3.562       -1e+300       -1e+300       -1e+300       -1e+300       -1e+300       -1e+300       -1e+300      -4.47489      -9.84053       -6.8332      -7.49718      -5.12957      -4.43218      -2.65064      -1.81445      -1.26462      -1.02094     -0.549533     0.0897501      0.380681      0.604229      0.906276       1.05124       1.27608       1.48103       1.65175       1.72312       1.93196       1.89852       1.89852       2.02106       2.15681       2.35034       2.43427       2.60599       2.61051       2.67294       2.62845       -1e+300       -1e+300       -1e+300       -1e+300       -1e+300       -1e+300       -1e+300       -1e+300       -1e+300       -1e+300       -1e+300       -1e+300       -1e+300       -1e+300       -1e+300       -1e+300       -1e+300
        3.564       -1e+300       -1e+300       -1e+300       -1e+300       -1e+300       -1e+300       -1e+300      -7.33082      -10.4872      -8.45298      -11.0358      -6.57437      -5.96985      -4.15826      -3.33702      -2.73657      -2.36985      -1.90581      -1.36677     -0.998262     -0.759652     -0.343731      -0.16594    -0.0242927      0.119286       0.26569      0.326583      0.446263      0.443852      0.443852      0.646965      0.761925        0.9273       1.02381       1.21415       1.18929       1.22976       1.16008       -1e+300       -1e+300       -1e+300       -1e+300       -1e+300       -1e+300       -1e+300       -1e+300       -1e+300       -1e+300       -1e+300       -1e+300       -1e+300       -1e+300       -1e+300       -1e+300       -1e+300
        3.566       -1e+300       -1e+300       -1e+300       -1e+300       -1e+300       -1e+300       -1e+300      -10.4545      -11.9705      -11.3696      -8.68371      -8.05886      -6.88796       -5.6632      -5.23132      -4.69392      -4.20953      -3.73534      -3.29025      -2.84718      -2.59243       -2.0759      -1.80762       -1.7456      -1.66136      -1.52723      -1.45849      -1.36784      -1.37503      -1.37503      -1.09126     -0.969217     -0.815455     -0.703331      -0.50772     -0.549582     -0.534191     -0.593984       -1e+300       -1e+300       -1e+300       -1e+300       -1e+300       -1e+300       -1e+300       -1e+300       -1e+300       -1e+300       -1e+300       -1e+300       -1e+300       -1e+300       -1e+300       -1e+300       -1e+300
        3.568       -1e+300       -1e+300       -1e+300       -1e+300       -1e+300       -1e+300       -1e+300      -10.1982      -10.8492      -10.5597      -10.4964      -6.53425      -5.17034      -4.01415      -3.66615      -3.30087      -2.86046      -2.33316      -1.90298       -1.4055      -1.14263     -0.568244     -0.248842     -0.169155     -0.114975    0.00641024     0.0968525      0.182766      0.194262      0.194262      0.500573      0.634287      0.774763      0.884774       1.11646        1.0604       1.04346       0.98344       -1e+300       -1e+300       -1e+300       -1e+300       -1e+300       -1e+300       -1e+300       -1e+300       -1e+300       -1e+300       -1e+300       -1e+300       -1e+300       -1e+300       -1e+300       -1e+300       -1e+300
         3.57       -1e+300       -1e+300       -1e+300       -1e+300       -1e+300       -1e+300       -1e+300      -7.71952      -6.72362      -9.84917        -7.611      -5.02665      -3.58804      -2.48697      -2.13217      -1.83555      -1.53741      -1.06543      -0.60582    -0.0769871      0.218937      0.867999       1.16128       1.28171       1.34344       1.46611       1.57569       1.67802       1.71053       1.71053       1.96235       2.06672       2.17169       2.29774       2.53026       2.48889       2.42081        2.3452       -1e+300       -1e+300       -1e+300       -1e+300       -1e+300       -1e+300       -1e+300       -1e+300       -1e+300       -1e+300       -1e+300       -1e+300       -1e+300       -1e+300       -1e+300       -1e+300       -1e+300
        3.572       -1e+300       -1e+300       -1e+300       -1e+300       -1e+300       -1e+300       -1e+300      -9.34491      -9.84976       -10.592      -9.48018      -7.79476      -6.20554      -5.31349       -4.9412      -4.62241      -4.32358      -4.01316      -3.64643      -3.12168      -2.72742      -1.92937      -1.72686      -1.59073      -1.49742      -1.34688      -1.21008      -1.08338       -1.0083       -1.0083     -0.876427     -0.732661     -0.644059     -0.526485      -0.29719     -0.337572     -0.437115     -0.495015       -1e+300       -1e+300       -1e+300       -1e+300       -1e+300       -1e+300       -1e+300       -1e+300       -1e+300       -1e+300       -1e+300       -1e+300       -1e+300       -1e+300       -1e+300       -1e+300       -1e+300
        3.574       -1e+300       -1e+300       -1e+300       -1e+300       -1e+300       -1e+300       -1e+300      -9.20881      -9.67777      -9.36984      -7.86829      -7.55949      -6.47895      -5.75315      -5.32094      -5.05208      -4.75402      -4.45254      -4.32743       -3.7735      -3.27198      -2.30156      -2.17093       -2.1031      -1.98234       -1.7407      -1.57926      -1.41458      -1.33225      -1.33225      -1.26174      -1.11055      -1.03433     -0.920539     -0.700708     -0.689909     -0.796228     -0.842422       -1e+300       -1e+300       -1e+300       -1e+300       -1e+300       -1e+300       -1e+300       -1e+300       -1e+300       -1e+300       -1e+300       -1e+300       -1e+300       -1e+300       -1e+300       -1e+300       -1e+300
        3.576       -1e+300       -1e+300       -1e+300       -1e+300       -1e+300       -1e+300       -1e+300      -7.47146      -7.78655      -7.72391       -5.6861      -6.16303      -5.63263      -4.81736      -4.27737      -4.04867      -3.81551      -3.44848      -3.53985      -3.06177      -2.36126      -1.28711      -1.18676        -1.214      -1.08712     -0.776267     -0.589778      -0.39982     -0.357917     -0.357917     -0.322164     -0.185127     -0.114791    -0.0133101      0.180803      0.209379      0.081615     0.0436903       -1e+300       -1e+300       -1e+300       -1e+300       -1e+300       -1e+300       -1e+300       -1e+300       -1e+300       -1e+300       -1e+300       -1e+300       -1e+300       -1e+300       -1e+300       -1e+300       -1e+300
        3.578       -1e+300       -1e+300       -1e+300       -1e+300       -1e+300       -1e+300       -1e+300      -4.65136      -4.67388      -3.34625      -5.64206      -4.29173      -3.88542        -2.952      -2.36152      -1.95686      -1.71503      -1.48481      -1.25094      -1.06985     -0.257234      0.724767      0.853959      0.794733      0.893935       1.25602       1.45602       1.66466       1.64429       1.64429        1.6724       1.81839       1.88024        1.9748        2.1264       2.18452       2.06104       2.02359       -1e+300       -1e+300       -1e+300       -1e+300       -1e+300       -1e+300       -1e+300       -1e+300       -1e+300       -1e+300       -1e+300       -1e+300       -1e+300       -1e+300       -1e+300       -1e+300       -1e+300
         3.58       -1e+300       -1e+300       -1e+300       -1e+300       -1e+300       -1e+300       -1e+300      -2.93591      -2.92046         -2.01      -4.26093       -3.7477      -3.23603      -2.12615      -1.37641      -1.04398     -0.717151     -0.351174     0.0552667      0.156587       1.05448       1.76384       1.89962       1.90168       1.96146       2.34658       2.54262       2.76544       2.70031       2.70031        2.7395       2.87924       2.95011       3.04591       3.16451       3.25114       3.15041       3.12424       -1e+300       -1e+300       -1e+300       -1e+300       -1e+300       -1e+300       -1e+300       -1e+300       -1e+300       -1e+300       -1e+300       -1e+300       -1e+300       -1e+300       -1e+300       -1e+300       -1e+300
        3.582       -1e+300       -1e+300       -1e+300       -1e+300       -1e+300       -1e+300       -1e+300      -4.22957      -4.96447       -3.8881      -5.65802      -5.92247      -5.48583      -4.25816      -3.32789      -2.97255      -2.87387       -2.2326      -1.78651      -1.49531     -0.516398    -0.0877559    -0.0257436     0.0517656     0.0753975       0.41985      0.605627      0.854056      0.769898      0.769898      0.840581      0.972192       1.04924       1.15244       1.22877       1.34846       1.17365       1.21912       -1e+300       -1e+300       -1e+300       -1e+300       -1e+300       -1e+300       -1e+300       -1e+300       -1e+300       -1e+300       -1e+300       -1e+300       -1e+300       -1e+300       -1e+300       -1e+300       -1e+300
        3.584       -1e+300       -1e+300       -1e+300       -1e+300       -1e+300       -1e+300       -1e+300      -7.00154      -8.07654      -7.69149      -8.62594      -8.89702      -8.70947      -7.37731       -6.4773      -6.00763      -5.67753      -5.13517       -4.6402      -4.12793      -3.17447       -3.0048      -2.97677      -2.84583      -2.84728      -2.57236      -2.41364      -2.15451      -2.25467      -2.25467      -2.15481      -2.03135      -1.95724      -1.84331      -1.80703      -1.70217      -1.71762      -1.73804       -1e+300       -1e+300       -1e+300       -1e+300       -1e+300       -1e+300       -1e+300       -1e+300       -1e+300       -1e+300       -1e+300       -1e+300       -1e+300       -1e+300       -1e+300       -1e+300       -1e+300
        3.586       -1e+300       -1e+300       -1e+300       -1e+300       -1e+300       -1e+300       -1e+300      -10.2153      -9.73474      -12.3333      -11.0733      -10.7921      -10.6074      -9.56971      -8.52758      -7.98197      -7.63941      -7.21036      -6.59554      -5.89986      -5.18421      -5.12022         -5.05      -4.89974      -4.91784      -4.72407      -4.61379      -4.34123      -4.45639      -4.45639       -4.3315      -4.19902      -4.12138      -4.01618      -4.02019      -3.91822      -3.90878      -3.91652       -1e+300       -1e+300       -1e+300       -1e+300       -1e+300       -1e+300       -1e+300       -1e+300       -1e+300       -1e+300       -1e+300       -1e+300       -1e+300       -1e+300       -1e+300       -1e+300       -1e+300
        3.588       -1e+300       -1e+300       -1e+300       -1e+300       -1e+300       -1e+300       -1e+300       -9.6506      -8.92808      -26.4258      -9.61961       -8.4225      -7.37029      -6.73956      -6.27278      -5.61675      -5.34688      -5.01637      -4.13437      -3.51542       -3.0848      -3.00874      -2.89982      -2.71763       -2.7497      -2.62705      -2.53861      -2.28475       -2.4433       -2.4433      -2.27206      -2.10777      -2.03997      -1.92489      -1.98912      -1.89787      -1.85664      -1.86716       -1e+300       -1e+300       -1e+300       -1e+300       -1e+300       -1e+300       -1e+300       -1e+300       -1e+300       -1e+300       -1e+300       -1e+300       -1e+300       -1e+300       -1e+300       -1e+300       -1e+300
         3.59       -1e+300       -1e+300       -1e+300       -1e+300       -1e+300       -1e+300       -1e+300      -9.62018       -10.467      -16.1907      -9.55915      -7.91285       -6.6173      -5.82434      -5.77082      -4.88533      -4.36266      -3.98061      -3.05988      -2.61902      -2.36255      -2.23338       -2.0842      -1.87531      -1.90288      -1.85194      -1.77973      -1.57389       -1.7348       -1.7348      -1.52752      -1.32901      -1.26339      -1.13405      -1.23989      -1.13882      -1.06724      -1.08012       -1e+300       -1e+300       -1e+300       -1e+300       -1e+300       -1e+300       -1e+300       -1e+300       -1e+300       -1e+300       -1e+300       -1e+300       -1e+300       -1e+300       -1e+300       -1e+300       -1e+300