# Probe 0 (0 0 0.005)
# Probe 1 (0 0 0.0155)
# Probe 2 (0 0 0.02653)
# Probe 3 (0 0 0.0381)
# Probe 4 (0 0 0.05026)
# Probe 5 (0 0 0.06302)
# Probe 6 (0 0 0.07642)
# Probe 7 (0 0 0.08)
# Probe 8 (0 0 0.09049)
# Probe 9 (0 0 0.10527)
# Probe 10 (0 0 0.12078)
# Probe 11 (0 0 0.13707)
# Probe 12 (0 0 0.15417)
# Probe 13 (0 0 0.17213)
# Probe 14 (0 0 0.19099)
# Probe 15 (0 0 0.2)
# Probe 16 (0 0 0.21079)
# Probe 17 (0 0 0.23157)
# Probe 18 (0 0 0.2534)
# Probe 19 (0 0 0.27632)
# Probe 20 (0 0 0.30039)
# Probe 21 (0 0 0.32566)
# Probe 22 (0 0 0.35219)
# Probe 23 (0 0 0.38005)
# Probe 24 (0 0 0.4093)
# Probe 25 (0 0 0.44002)
# Probe 26 (0 0 0.47227)
# Probe 27 (0 0 0.50613)
# Probe 28 (0 0 0.54169)
# Probe 29 (0 0 0.57903)
# Probe 30 (0 0 0.61823)
# Probe 31 (0 0 0.65939)
# Probe 32 (0 0 0.70261)
# Probe 33 (0 0 0.74799)
# Probe 34 (0 0 0.79564)
# Probe 35 (0 0 0.84567)
# Probe 36 (0 0 0.8982)
# Probe 37 (0 0 0.95336)
# Probe 38 (0 0 1.01128)
# Probe 39 (0 0 1.0721)
# Probe 40 (0 0 1.13595)
# Probe 41 (0 0 1.203)
# Probe 42 (0 0 1.2734)
# Probe 43 (0 0 1.34732)
# Probe 44 (0 0 1.42493)
# Probe 45 (0 0 1.50643)
# Probe 46 (0 0 1.592)
# Probe 47 (0 0 1.68185)
# Probe 48 (0 0 1.77619)
# Probe 49 (0 0 1.87525)
# Probe 50 (0 0 1.97927)
# Probe 51 (0 0 2.08848)
# Probe 52 (0 0 2.20315)
# Probe 53 (0 0 2.32356)
# Probe 54 (0 0 2.44999)
#       Probe             0             1             2             3             4             5             6             7             8             9            10            11            12            13            14            15            16            17            18            19            20            21            22            23            24            25            26            27            28            29            30            31            32            33            34            35            36            37            38            39            40            41            42            43            44            45            46            47            48            49            50            51            52            53            54
#        Time
        3.522             (-1e+300 -1e+300 -1e+300)             (-1e+300 -1e+300 -1e+300)             (-1e+300 -1e+300 -1e+300)             (-1e+300 -1e+300 -1e+300)             (-1e+300 -1e+300 -1e+300)             (-1e+300 -1e+300 -1e+300)             (-1e+300 -1e+300 -1e+300)             (-0.0882813 0.119926 0.00013227)             (2.18381 1.01155 -0.0980831)             (3.01689 -3.0633 0.183434)             (5.89848 -0.0934556 -1.09543)             (5.60544 -0.260518 2.12273)             (7.88294 0.149326 0.977143)             (7.76233 -1.11183 0.484879)             (8.35049 -0.110482 0.31781)             (8.06984 0.0130868 0.272805)             (8.14052 0.168451 -0.102068)             (8.63188 0.357708 -0.275829)             (8.06612 0.18009 -0.169308)             (8.07562 0.149615 -0.369396)             (7.95352 0.108663 -0.768812)             (8.33148 0.256374 -0.712146)             (8.50876 0.235066 -0.656033)             (8.58959 0.112139 -0.42841)             (8.66019 -0.0156616 -0.429126)             (8.33121 0.286481 -0.253803)             (8.37727 0.407848 -0.209834)             (8.45546 0.373527 -0.406329)             (8.53031 0.604043 -0.610878)             (8.53031 0.604043 -0.610878)             (8.62729 0.720882 -0.533594)             (8.3819 0.657204 -0.570018)             (8.39773 0.723123 -0.540175)             (8.59794 0.877166 -0.319811)             (8.63466 0.818099 -0.414954)             (8.53301 0.63442 -0.327807)             (8.61372 0.488481 -0.217581)             (8.51708 0.317317 -0.264641)             (-1e+300 -1e+300 -1e+300)             (-1e+300 -1e+300 -1e+300)             (-1e+300 -1e+300 -1e+300)             (-1e+300 -1e+300 -1e+300)             (-1e+300 -1e+300 -1e+300)             (-1e+300 -1e+300 -1e+300)             (-1e+300 -1e+300 -1e+300)             (-1e+300 -1e+300 -1e+300)             (-1e+300 -1e+300 -1e+300)             (-1e+300 -1e+300 -1e+300)             (-1e+300 -1e+300 -1e+300)             (-1e+300 -1e+300 -1e+300)             (-1e+300 -1e+300 -1e+300)             (-1e+300 -1e+300 -1e+300)             (-1e+300 -1e+300 -1e+300)             (-1e+300 -1e+300 -1e+300)             (-1e+300 -1e+300 -1e+300)
        3.524             (-1e+300 -1e+300 -1e+300)             (-1e+300 -1e+300 -1e+300)             (-1e+300 -1e+300 -1e+300)             (-1e+300 -1e+300 -1e+300)             (-1e+300 -1e+300 -1e+300)             (-1e+300 -1e+300 -1e+300)             (-1e+300 -1e+300 -1e+300)             (-0.0720415 0.0564097 -0.000242491)             (1.86539 -1.36881 -0.926412)             (3.22678 -0.947069 -1.8986)             (7.26531 0.221338 1.39002)             (6.50475 -0.0371165 0.222944)             (7.85977 0.651566 0.57387)             (7.90925 -0.721612 0.302972)             (8.07988 0.26874 -0.302184)             (7.87972 0.234086 -0.658121)             (8.14712 0.471159 -0.737781)             (8.83593 0.13219 -0.821657)             (8.39298 7.7279e-05 -0.721007)             (8.03422 -0.0337371 -0.571855)             (7.9211 -0.00865866 -0.74863)             (8.56511 0.132427 -0.619992)             (8.58197 0.0779145 -0.714866)             (8.62831 -0.0819869 -0.429507)             (8.67804 -0.180724 -0.478879)             (8.44159 0.334595 -0.359658)             (8.49217 0.3802 -0.344559)             (8.50072 0.405837 -0.419254)             (8.57462 0.618882 -0.605888)             (8.57462 0.618882 -0.605888)             (8.68646 0.785973 -0.592776)             (8.40671 0.703829 -0.525271)             (8.47904 0.770154 -0.454276)             (8.66303 0.874889 -0.222232)             (8.6454 0.807286 -0.329164)             (8.57478 0.6851 -0.288963)             (8.62768 0.544936 -0.194543)             (8.52072 0.389562 -0.286137)             (-1e+300 -1e+300 -1e+300)             (-1e+300 -1e+300 -1e+300)             (-1e+300 -1e+300 -1e+300)             (-1e+300 -1e+300 -1e+300)             (-1e+300 -1e+300 -1e+300)             (-1e+300 -1e+300 -1e+300)             (-1e+300 -1e+300 -1e+300)             (-1e+300 -1e+300 -1e+300)             (-1e+300 -1e+300 -1e+300)             (-1e+300 -1e+300 -1e+300)             (-1e+300 -1e+300 -1e+300)             (-1e+300 -1e+300 -1e+300)             (-1e+300 -1e+300 -1e+300)             (-1e+300 -1e+300 -1e+300)             (-1e+300 -1e+300 -1e+300)             (-1e+300 -1e+300 -1e+300)             (-1e+300 -1e+300 -1e+300)
        3.526             (-1e+300 -1e+300 -1e+300)             (-1e+300 -1e+300 -1e+300)             (-1e+300 -1e+300 -1e+300)             (-1e+300 -1e+300 -1e+300)             (-1e+300 -1e+300 -1e+300)             (-1e+300 -1e+300 -1e+300)             (-1e+300 -1e+300 -1e+300)             (-0.0555687 0.0248441 0.000108299)             (1.55597 -0.530121 -1.13776)             (4.9727 0.191152 -1.05928)             (6.52164 0.424673 0.934084)             (7.08809 0.263057 0.602335)             (7.18714 0.230438 0.36687)             (7.5032 0.103406 0.191331)             (7.51279 0.240157 -0.562846)             (7.82519 0.452845 -0.710357)             (8.2068 0.38103 -0.657554)             (8.71348 0.072536 -0.683873)             (8.7253 -0.214776 -0.892515)             (8.20335 -0.267743 -0.574464)             (7.93944 -0.205569 -0.535577)             (8.6073 -0.0374014 -0.620713)             (8.51901 -0.0362334 -0.706659)             (8.64721 -0.209082 -0.43608)             (8.64243 -0.258005 -0.491046)             (8.47795 0.359663 -0.439157)             (8.55684 0.334023 -0.466027)             (8.56441 0.44259 -0.41526)             (8.61437 0.619516 -0.590265)             (8.61437 0.619516 -0.590265)             (8.72791 0.830581 -0.632075)             (8.4346 0.740429 -0.463885)             (8.55983 0.800241 -0.350071)             (8.72761 0.856404 -0.144422)             (8.65617 0.781806 -0.244258)             (8.60323 0.721836 -0.245936)             (8.63137 0.585895 -0.163356)             (8.52163 0.463198 -0.29207)             (-1e+300 -1e+300 -1e+300)             (-1e+300 -1e+300 -1e+300)             (-1e+300 -1e+300 -1e+300)             (-1e+300 -1e+300 -1e+300)             (-1e+300 -1e+300 -1e+300)             (-1e+300 -1e+300 -1e+300)             (-1e+300 -1e+300 -1e+300)             (-1e+300 -1e+300 -1e+300)             (-1e+300 -1e+300 -1e+300)             (-1e+300 -1e+300 -1e+300)             (-1e+300 -1e+300 -1e+300)             (-1e+300 -1e+300 -1e+300)             (-1e+300 -1e+300 -1e+300)             (-1e+300 -1e+300 -1e+300)             (-1e+300 -1e+300 -1e+300)             (-1e+300 -1e+300 -1e+300)             (-1e+300 -1e+300 -1e+300)
        3.528             (-1e+300 -1e+300 -1e+300)             (-1e+300 -1e+300 -1e+300)             (-1e+300 -1e+300 -1e+300)             (-1e+300 -1e+300 -1e+300)             (-1e+300 -1e+300 -1e+300)             (-1e+300 -1e+300 -1e+300)             (-1e+300 -1e+300 -1e+300)             (-0.0377705 0.0104441 0.000682899)             (1.38558 0.240212 0.756462)             (5.81263 -0.223527 -0.928146)             (6.30528 0.467764 -0.208516)             (6.76046 0.252019 0.603402)             (7.31782 0.249067 0.39844)             (7.23728 0.373654 0.113043)             (7.37382 0.456771 -0.479464)             (7.77131 0.190868 -0.392479)             (8.09409 0.0439552 -0.346084)             (8.57874 -0.0269381 -0.292108)             (8.8054 -0.320363 -0.510763)             (8.5403 -0.410548 -0.500851)             (7.92949 -0.344729 -0.312145)             (8.55055 -0.0732177 -0.587651)             (8.41394 -0.0348516 -0.687363)             (8.62169 -0.237727 -0.457524)             (8.56262 -0.248424 -0.452015)             (8.45037 0.342012 -0.452064)             (8.5663 0.290571 -0.507102)             (8.62693 0.475467 -0.381851)             (8.65486 0.610591 -0.567353)             (8.65486 0.610591 -0.567353)             (8.75697 0.8557 -0.649308)             (8.46967 0.767433 -0.397302)             (8.63891 0.812997 -0.244778)             (8.79233 0.825371 -0.0976311)             (8.67496 0.743006 -0.173616)             (8.62586 0.743212 -0.205815)             (8.63416 0.60955 -0.127092)             (8.52718 0.529661 -0.284248)             (-1e+300 -1e+300 -1e+300)             (-1e+300 -1e+300 -1e+300)             (-1e+300 -1e+300 -1e+300)             (-1e+300 -1e+300 -1e+300)             (-1e+300 -1e+300 -1e+300)             (-1e+300 -1e+300 -1e+300)             (-1e+300 -1e+300 -1e+300)             (-1e+300 -1e+300 -1e+300)             (-1e+300 -1e+300 -1e+300)             (-1e+300 -1e+300 -1e+300)             (-1e+300 -1e+300 -1e+300)             (-1e+300 -1e+300 -1e+300)             (-1e+300 -1e+300 -1e+300)             (-1e+300 -1e+300 -1e+300)             (-1e+300 -1e+300 -1e+300)             (-1e+300 -1e+300 -1e+300)             (-1e+300 -1e+300 -1e+300)
         3.53             (-1e+300 -1e+300 -1e+300)             (-1e+300 -1e+300 -1e+300)             (-1e+300 -1e+300 -1e+300)             (-1e+300 -1e+300 -1e+300)             (-1e+300 -1e+300 -1e+300)             (-1e+300 -1e+300 -1e+300)             (-1e+300 -1e+300 -1e+300)             (-0.198133 0.183323 -0.000438788)             (1.00929 -0.58499 0.920992)             (6.13389 0.579663 -0.974634)             (6.34687 -0.389651 -0.200029)             (6.80512 0.384832 0.328762)             (7.20877 0.463914 -0.42241)             (7.12825 0.172785 -0.513769)             (7.81524 0.14301 -0.0700453)             (8.15054 -0.136103 0.173504)             (8.62501 -0.316329 0.458852)             (8.42919 -0.402577 0.373379)             (8.5112 -0.329347 0.162735)             (8.79639 -0.33504 -0.385935)             (7.99739 -0.298121 -0.268459)             (8.43041 0.0749142 -0.503013)             (8.27862 0.0551395 -0.68833)             (8.53384 -0.181004 -0.498792)             (8.45319 -0.190504 -0.381816)             (8.38214 0.287408 -0.387793)             (8.52153 0.257909 -0.445117)             (8.64199 0.495355 -0.319382)             (8.68334 0.597478 -0.540722)             (8.68334 0.597478 -0.540722)             (8.76324 0.864196 -0.645074)             (8.498 0.784756 -0.336838)             (8.69935 0.808383 -0.154006)             (8.84154 0.785519 -0.0868919)             (8.69178 0.693573 -0.127767)             (8.63405 0.748817 -0.17455)             (8.62743 0.615267 -0.0890706)             (8.5266 0.580999 -0.265257)             (-1e+300 -1e+300 -1e+300)             (-1e+300 -1e+300 -1e+300)             (-1e+300 -1e+300 -1e+300)             (-1e+300 -1e+300 -1e+300)             (-1e+300 -1e+300 -1e+300)             (-1e+300 -1e+300 -1e+300)             (-1e+300 -1e+300 -1e+300)             (-1e+300 -1e+300 -1e+300)             (-1e+300 -1e+300 -1e+300)             (-1e+300 -1e+300 -1e+300)             (-1e+300 -1e+300 -1e+300)             (-1e+300 -1e+300 -1e+300)             (-1e+300 -1e+300 -1e+300)             (-1e+300 -1e+300 -1e+300)             (-1e+300 -1e+300 -1e+300)             (-1e+300 -1e+300 -1e+300)             (-1e+300 -1e+300 -1e+300)
        3.532             (-1e+300 -1e+300 -1e+300)             (-1e+300 -1e+300 -1e+300)             (-1e+300 -1e+300 -1e+300)             (-1e+300 -1e+300 -1e+300)             (-1e+300 -1e+300 -1e+300)             (-1e+300 -1e+300 -1e+300)             (-1e+300 -1e+300 -1e+300)             (-0.101997 0.163989 -0.000126165)             (0.135512 -0.0241564 1.51694)             (7.02091 1.16418 -1.00783)             (7.12371 0.218605 -0.460117)             (7.18656 -0.0614944 -0.55385)             (6.85934 0.415992 -0.543082)             (7.82738 0.0696461 -0.0978862)             (8.41936 -0.623792 0.579579)             (8.75883 -0.817343 0.791269)             (8.85112 -0.919052 0.564977)             (8.50176 -0.720427 0.616412)             (8.00499 -0.363446 0.620008)             (8.67791 -0.172169 -0.190213)             (8.21576 -0.0913986 -0.403957)             (8.32191 0.29277 -0.517141)             (8.1706 0.180367 -0.707851)             (8.40911 -0.0810907 -0.549416)             (8.34703 -0.124998 -0.318399)             (8.31626 0.221328 -0.278548)             (8.44699 0.23476 -0.314246)             (8.58263 0.498221 -0.240132)             (8.69708 0.584942 -0.515126)             (8.69708 0.584942 -0.515126)             (8.7483 0.859714 -0.624071)             (8.51721 0.791322 -0.292891)             (8.73833 0.786571 -0.0908168)             (8.87321 0.740107 -0.111875)             (8.70766 0.637301 -0.113668)             (8.6318 0.738819 -0.156778)             (8.61389 0.603427 -0.053309)             (8.52061 0.610418 -0.23831)             (-1e+300 -1e+300 -1e+300)             (-1e+300 -1e+300 -1e+300)             (-1e+300 -1e+300 -1e+300)             (-1e+300 -1e+300 -1e+300)             (-1e+300 -1e+300 -1e+300)             (-1e+300 -1e+300 -1e+300)             (-1e+300 -1e+300 -1e+300)             (-1e+300 -1e+300 -1e+300)             (-1e+300 -1e+300 -1e+300)             (-1e+300 -1e+300 -1e+300)             (-1e+300 -1e+300 -1e+300)             (-1e+300 -1e+300 -1e+300)             (-1e+300 -1e+300 -1e+300)             (-1e+300 -1e+300 -1e+300)             (-1e+300 -1e+300 -1e+300)             (-1e+300 -1e+300 -1e+300)             (-1e+300 -1e+300 -1e+300)
        3.534             (-1e+300 -1e+300 -1e+300)             (-1e+300 -1e+300 -1e+300)             (-1e+300 -1e+300 -1e+300)             (-1e+300 -1e+300 -1e+300)             (-1e+300 -1e+300 -1e+300)             (-1e+300 -1e+300 -1e+300)             (-1e+300 -1e+300 -1e+300)             (-0.0822532 0.111637 -4.6182e-05)             (0.579662 0.636928 0.94214)             (6.49944 1.53059 0.340678)             (7.1913 0.263229 -0.452908)             (7.39296 0.0440418 -0.41439)             (6.89324 0.587831 -0.0120732)             (8.41877 -0.812768 0.774944)             (8.63992 -1.47303 0.813686)             (8.51157 -1.41139 0.753794)             (8.40537 -1.23891 0.521353)             (8.44192 -0.859426 0.314521)             (7.76226 -0.360751 0.599315)             (8.26597 -0.133985 -0.0198614)             (8.42655 0.124941 -0.471108)             (8.32969 0.43138 -0.623469)             (8.13523 0.291794 -0.735954)             (8.29997 0.0207443 -0.592219)             (8.28055 -0.0653608 -0.297056)             (8.29676 0.173311 -0.183522)             (8.37998 0.22295 -0.17828)             (8.45923 0.48657 -0.161351)             (8.70594 0.576495 -0.494395)             (8.70594 0.576495 -0.494395)             (8.7271 0.846144 -0.592711)             (8.53896 0.785575 -0.27237)             (8.76921 0.748761 -0.0628608)             (8.90084 0.692114 -0.16635)             (8.73569 0.578994 -0.133037)             (8.63619 0.714317 -0.154561)             (8.6086 0.57575 -0.0237217)             (8.52254 0.61359 -0.206464)             (-1e+300 -1e+300 -1e+300)             (-1e+300 -1e+300 -1e+300)             (-1e+300 -1e+300 -1e+300)             (-1e+300 -1e+300 -1e+300)             (-1e+300 -1e+300 -1e+300)             (-1e+300 -1e+300 -1e+300)             (-1e+300 -1e+300 -1e+300)             (-1e+300 -1e+300 -1e+300)             (-1e+300 -1e+300 -1e+300)             (-1e+300 -1e+300 -1e+300)             (-1e+300 -1e+300 -1e+300)             (-1e+300 -1e+300 -1e+300)             (-1e+300 -1e+300 -1e+300)             (-1e+300 -1e+300 -1e+300)             (-1e+300 -1e+300 -1e+300)             (-1e+300 -1e+300 -1e+300)             (-1e+300 -1e+300 -1e+300)
        3.536             (-1e+300 -1e+300 -1e+300)             (-1e+300 -1e+300 -1e+300)             (-1e+300 -1e+300 -1e+300)             (-1e+300 -1e+300 -1e+300)             (-1e+300 -1e+300 -1e+300)             (-1e+300 -1e+300 -1e+300)             (-1e+300 -1e+300 -1e+300)             (-0.0327778 0.0643465 -4.99868e-05)             (0.448924 0.972775 0.273369)             (4.43028 1.29699 2.47552)             (6.75941 -0.278345 -0.29073)             (7.15165 0.368943 -0.129845)             (7.1138 -0.018494 0.263081)             (8.81829 -1.39543 0.418292)             (8.59379 -0.817967 0.147527)             (8.51667 -0.550658 0.382749)             (8.24959 -0.536813 0.683308)             (8.23293 -0.254665 0.799461)             (7.87043 -0.351297 0.355891)             (7.91008 -0.211078 0.0537818)             (8.44191 0.204543 -0.287842)             (8.38999 0.444804 -0.689057)             (8.14292 0.347212 -0.769729)             (8.22927 0.104905 -0.623588)             (8.25328 0.000861776 -0.338972)             (8.32283 0.163361 -0.1538)             (8.32924 0.230153 -0.0908819)             (8.29004 0.466035 -0.0994754)             (8.7014 0.573143 -0.479376)             (8.7014 0.573143 -0.479376)             (8.69585 0.826402 -0.556942)             (8.55712 0.765344 -0.277068)             (8.78843 0.697148 -0.0710082)             (8.92054 0.644192 -0.239259)             (8.7687 0.52303 -0.181541)             (8.64431 0.676648 -0.166754)             (8.60647 0.534697 -0.00343078)             (8.52615 0.588705 -0.172292)             (-1e+300 -1e+300 -1e+300)             (-1e+300 -1e+300 -1e+300)             (-1e+300 -1e+300 -1e+300)             (-1e+300 -1e+300 -1e+300)             (-1e+300 -1e+300 -1e+300)             (-1e+300 -1e+300 -1e+300)             (-1e+300 -1e+300 -1e+300)             (-1e+300 -1e+300 -1e+300)             (-1e+300 -1e+300 -1e+300)             (-1e+300 -1e+300 -1e+300)             (-1e+300 -1e+300 -1e+300)             (-1e+300 -1e+300 -1e+300)             (-1e+300 -1e+300 -1e+300)             (-1e+300 -1e+300 -1e+300)             (-1e+300 -1e+300 -1e+300)             (-1e+300 -1e+300 -1e+300)             (-1e+300 -1e+300 -1e+300)
        3.538             (-1e+300 -1e+300 -1e+300)             (-1e+300 -1e+300 -1e+300)             (-1e+300 -1e+300 -1e+300)             (-1e+300 -1e+300 -1e+300)             (-1e+300 -1e+300 -1e+300)             (-1e+300 -1e+300 -1e+300)             (-1e+300 -1e+300 -1e+300)             (0.0241894 0.0304404 6.82471e-05)             (-0.577903 0.63637 1.28427)             (4.76446 1.75429 0.806754)             (6.26637 -0.420004 0.182816)             (6.83807 0.269005 -0.0102554)             (7.23164 -0.520813 0.350223)             (8.45377 -0.465375 -0.233382)             (8.43242 -0.0745735 -0.236466)             (8.80031 -0.0628066 -0.0482745)             (8.7416 -0.160518 0.328419)             (8.40487 -0.310298 0.820848)             (7.84689 -0.209926 0.117815)             (7.79629 -0.268918 0.0352153)             (8.27925 0.151885 -0.0637803)             (8.37069 0.374397 -0.694092)             (8.16431 0.33833 -0.807558)             (8.2025 0.178404 -0.659626)             (8.25525 0.0956974 -0.448274)             (8.37172 0.196667 -0.209243)             (8.29527 0.261013 -0.074329)             (8.11405 0.442746 -0.06705)             (8.68233 0.574089 -0.469528)             (8.68233 0.574089 -0.469528)             (8.65687 0.80276 -0.522881)             (8.57256 0.729094 -0.305664)             (8.79989 0.635344 -0.111547)             (8.93552 0.599204 -0.318274)             (8.80524 0.473151 -0.250457)             (8.65856 0.627527 -0.189844)             (8.6084 0.483631 0.00519481)             (8.53161 0.537292 -0.13832)             (-1e+300 -1e+300 -1e+300)             (-1e+300 -1e+300 -1e+300)             (-1e+300 -1e+300 -1e+300)             (-1e+300 -1e+300 -1e+300)             (-1e+300 -1e+300 -1e+300)             (-1e+300 -1e+300 -1e+300)             (-1e+300 -1e+300 -1e+300)             (-1e+300 -1e+300 -1e+300)             (-1e+300 -1e+300 -1e+300)             (-1e+300 -1e+300 -1e+300)             (-1e+300 -1e+300 -1e+300)             (-1e+300 -1e+300 -1e+300)             (-1e+300 -1e+300 -1e+300)             (-1e+300 -1e+300 -1e+300)             (-1e+300 -1e+300 -1e+300)             (-1e+300 -1e+300 -1e+300)             (-1e+300 -1e+300 -1e+300)
         3.54             (-1e+300 -1e+300 -1e+300)             (-1e+300 -1e+300 -1e+300)             (-1e+300 -1e+300 -1e+300)             (-1e+300 -1e+300 -1e+300)             (-1e+300 -1e+300 -1e+300)             (-1e+300 -1e+300 -1e+300)             (-1e+300 -1e+300 -1e+300)             (0.120528 0.004843 2.76687e-05)             (0.949582 1.13647 0.64116)             (4.4593 0.676869 1.31508)             (5.82209 -0.304921 0.474717)             (6.45868 -0.046084 -0.0253325)             (7.46198 -0.348244 0.281707)             (8.07301 -0.544005 -0.240183)             (8.66013 -0.613908 -0.342764)             (9.47289 -0.521555 -0.0639713)             (9.34354 -0.649102 -0.0834619)             (8.59442 -0.498691 0.0850835)             (7.79229 -0.00583815 -0.293103)             (7.90591 -0.238653 -0.109789)             (8.10922 0.128377 -0.166364)             (8.2748 0.242281 -0.709007)             (8.18551 0.29864 -0.841498)             (8.20792 0.262948 -0.721898)             (8.27348 0.229142 -0.609458)             (8.40929 0.256845 -0.328421)             (8.27271 0.30471 -0.116617)             (7.97545 0.417987 -0.0681715)             (8.65597 0.575189 -0.462802)             (8.65597 0.575189 -0.462802)             (8.61874 0.774774 -0.495473)             (8.59242 0.67475 -0.354229)             (8.81337 0.566124 -0.176997)             (8.95443 0.55842 -0.391738)             (8.84988 0.429383 -0.328125)             (8.68609 0.566743 -0.21861)             (8.62111 0.424343 0.00121683)             (8.54493 0.462011 -0.106775)             (-1e+300 -1e+300 -1e+300)             (-1e+300 -1e+300 -1e+300)             (-1e+300 -1e+300 -1e+300)             (-1e+300 -1e+300 -1e+300)             (-1e+300 -1e+300 -1e+300)             (-1e+300 -1e+300 -1e+300)             (-1e+300 -1e+300 -1e+300)             (-1e+300 -1e+300 -1e+300)             (-1e+300 -1e+300 -1e+300)             (-1e+300 -1e+300 -1e+300)             (-1e+300 -1e+300 -1e+300)             (-1e+300 -1e+300 -1e+300)             (-1e+300 -1e+300 -1e+300)             (-1e+300 -1e+300 -1e+300)             (-1e+300 -1e+300 -1e+300)             (-1e+300 -1e+300 -1e+300)             (-1e+300 -1e+300 -1e+300)
        3.542             (-1e+300 -1e+300 -1e+300)             (-1e+300 -1e+300 -1e+300)             (-1e+300 -1e+300 -1e+300)             (-1e+300 -1e+300 -1e+300)             (-1e+300 -1e+300 -1e+300)             (-1e+300 -1e+300 -1e+300)             (-1e+300 -1e+300 -1e+300)             (0.240656 -0.0321624 -3.00391e-05)             (1.37578 -0.775118 0.543359)             (4.5612 0.789539 0.792534)             (5.3877 -0.25976 0.54392)             (6.54269 0.055325 0.404448)             (7.45481 -0.8253 0.302731)             (7.64368 -0.892036 -0.0799734)             (8.44453 -0.0730967 -0.436147)             (8.92782 -0.112494 -1.04061)             (8.95024 0.205827 -1.37011)             (8.67562 0.354232 -1.19174)             (8.1178 0.0960678 -0.726957)             (8.13395 -0.101271 -0.394461)             (8.03364 0.163982 -0.57733)             (8.19315 0.0851214 -0.74875)             (8.18547 0.267087 -0.864301)             (8.21556 0.376754 -0.817379)             (8.28676 0.385952 -0.790161)             (8.39983 0.306428 -0.460659)             (8.24616 0.335818 -0.182607)             (7.89947 0.389532 -0.0971619)             (8.6255 0.571936 -0.455178)             (8.6255 0.571936 -0.455178)             (8.58356 0.741526 -0.476653)             (8.61687 0.602161 -0.416434)             (8.83106 0.492997 -0.257178)             (8.97787 0.523453 -0.449852)             (8.90069 0.390332 -0.401491)             (8.72576 0.494662 -0.246568)             (8.64423 0.359153 -0.0145455)             (8.56599 0.368206 -0.0791658)             (-1e+300 -1e+300 -1e+300)             (-1e+300 -1e+300 -1e+300)             (-1e+300 -1e+300 -1e+300)             (-1e+300 -1e+300 -1e+300)             (-1e+300 -1e+300 -1e+300)             (-1e+300 -1e+300 -1e+300)             (-1e+300 -1e+300 -1e+300)             (-1e+300 -1e+300 -1e+300)             (-1e+300 -1e+300 -1e+300)             (-1e+300 -1e+300 -1e+300)             (-1e+300 -1e+300 -1e+300)             (-1e+300 -1e+300 -1e+300)             (-1e+300 -1e+300 -1e+300)             (-1e+300 -1e+300 -1e+300)             (-1e+300 -1e+300 -1e+300)             (-1e+300 -1e+300 -1e+300)             (-1e+300 -1e+300 -1e+300)
        3.544             (-1e+300 -1e+300 -1e+300)             (-1e+300 -1e+300 -1e+300)             (-1e+300 -1e+300 -1e+300)             (-1e+300 -1e+300 -1e+300)             (-1e+300 -1e+300 -1e+300)             (-1e+300 -1e+300 -1e+300)             (-1e+300 -1e+300 -1e+300)             (-0.0710155 -0.0389617 -0.00230764)             (1.59284 -1.13856 -0.67947)             (4.53342 -0.423369 0.593252)             (4.68755 -0.185707 0.553314)             (6.62444 0.0965756 0.954753)             (7.57719 -1.16493 0.525984)             (6.97196 -1.08017 0.00437784)             (7.91873 -0.209983 -0.283334)             (8.53304 0.182677 -0.549382)             (9.23363 0.285059 -0.536031)             (8.8992 -0.00537424 -0.830665)             (8.48048 0.0759528 -0.853225)             (8.29523 0.134883 -0.712246)             (8.0396 0.112581 -0.900377)             (8.14736 -0.0354899 -0.778826)             (8.13572 0.256233 -0.869556)             (8.18843 0.513871 -0.92969)             (8.2689 0.525543 -0.951347)             (8.31779 0.298755 -0.55447)             (8.19132 0.322781 -0.236175)             (7.88147 0.352435 -0.142112)             (8.58315 0.559356 -0.441698)             (8.58315 0.559356 -0.441698)             (8.54078 0.700952 -0.465218)             (8.63263 0.512134 -0.484653)             (8.84085 0.418827 -0.340886)             (8.99179 0.495004 -0.485705)             (8.94283 0.353243 -0.458497)             (8.76219 0.411881 -0.267217)             (8.66399 0.28996 -0.0393573)             (8.58132 0.262584 -0.0559281)             (-1e+300 -1e+300 -1e+300)             (-1e+300 -1e+300 -1e+300)             (-1e+300 -1e+300 -1e+300)             (-1e+300 -1e+300 -1e+300)             (-1e+300 -1e+300 -1e+300)             (-1e+300 -1e+300 -1e+300)             (-1e+300 -1e+300 -1e+300)             (-1e+300 -1e+300 -1e+300)             (-1e+300 -1e+300 -1e+300)             (-1e+300 -1e+300 -1e+300)             (-1e+300 -1e+300 -1e+300)             (-1e+300 -1e+300 -1e+300)             (-1e+300 -1e+300 -1e+300)             (-1e+300 -1e+300 -1e+300)             (-1e+300 -1e+300 -1e+300)             (-1e+300 -1e+300 -1e+300)             (-1e+300 -1e+300 -1e+300)