# Probe 0 (-0.35 0 0.005)
# Probe 1 (-0.35 0 0.0155)
# Probe 2 (-0.35 0 0.02653)
# Probe 3 (-0.35 0 0.0381)
# Probe 4 (-0.35 0 0.05026)
# Probe 5 (-0.35 0 0.06302)
# Probe 6 (-0.35 0 0.07642)
# Probe 7 (-0.35 0 0.08)
# Probe 8 (-0.35 0 0.09049)
# Probe 9 (-0.35 0 0.10527)
# Probe 10 (-0.35 0 0.12078)
# Probe 11 (-0.35 0 0.13707)
# Probe 12 (-0.35 0 0.15417)
# Probe 13 (-0.35 0 0.17213)
# Probe 14 (-0.35 0 0.19099)
# Probe 15 (-0.35 0 0.2)
# Probe 16 (-0.35 0 0.21079)
# Probe 17 (-0.35 0 0.23157)
# Probe 18 (-0.35 0 0.2534)
# Probe 19 (-0.35 0 0.27632)
# Probe 20 (-0.35 0 0.30039)
# Probe 21 (-0.35 0 0.32566)
# Probe 22 (-0.35 0 0.35219)
# Probe 23 (-0.35 0 0.38005)
# Probe 24 (-0.35 0 0.4093)
# Probe 25 (-0.35 0 0.44002)
# Probe 26 (-0.35 0 0.47227)
# Probe 27 (-0.35 0 0.50613)
# Probe 28 (-0.35 0 0.54169)
# Probe 29 (-0.35 0 0.57903)
# Probe 30 (-0.35 0 0.61823)
# Probe 31 (-0.35 0 0.65939)
# Probe 32 (-0.35 0 0.70261)
# Probe 33 (-0.35 0 0.74799)
# Probe 34 (-0.35 0 0.79564)
# Probe 35 (-0.35 0 0.84567)
# Probe 36 (-0.35 0 0.8982)
# Probe 37 (-0.35 0 0.95336)
# Probe 38 (-0.35 0 1.01128)
# Probe 39 (-0.35 0 1.0721)
# Probe 40 (-0.35 0 1.13595)
# Probe 41 (-0.35 0 1.203)
# Probe 42 (-0.35 0 1.2734)
# Probe 43 (-0.35 0 1.34732)
# Probe 44 (-0.35 0 1.42493)
# Probe 45 (-0.35 0 1.50643)
# Probe 46 (-0.35 0 1.592)
# Probe 47 (-0.35 0 1.68185)
# Probe 48 (-0.35 0 1.77619)
# Probe 49 (-0.35 0 1.87525)
# Probe 50 (-0.35 0 1.97927)
# Probe 51 (-0.35 0 2.08848)
# Probe 52 (-0.35 0 2.20315)
# Probe 53 (-0.35 0 2.32356)
# Probe 54 (-0.35 0 2.44999)
#       Probe             0             1             2             3             4             5             6             7             8             9            10            11            12            13            14            15            16            17            18            19            20            21            22            23            24            25            26            27            28            29            30            31            32            33            34            35            36            37            38            39            40            41            42            43            44            45            46            47            48            49            50            51            52            53            54
#        Time
       13.062       13.6093       13.3775       13.4631       13.9246       13.1118       12.2839       12.1638       12.1241       11.5615        11.482       11.2346       11.2837       11.0776       10.8004       10.6374       10.5271       10.4284       10.2646        10.098       9.90679       9.65906       9.49816       9.45577       9.01663       8.87155        8.6248       8.58042       8.44094       8.33977       8.33977       8.37494       8.31945        8.2352       8.31507       8.39289       8.46388       8.48868       8.55042       -1e+300       -1e+300       -1e+300       -1e+300       -1e+300       -1e+300       -1e+300       -1e+300       -1e+300       -1e+300       -1e+300       -1e+300       -1e+300       -1e+300       -1e+300       -1e+300       -1e+300
       13.064       12.7097       12.4637       12.5509       12.8481       12.4644       11.6569       11.5859       11.4959       11.3063       11.4602       11.1174       10.8801       10.7245       10.2862       10.0976       10.0606       9.95536       9.77169       9.54289       9.26601       9.05005       8.90397       8.84199       8.43113       8.27325       8.02334       8.00002       7.83975        7.7653        7.7653       7.61108       7.58266       7.47496       7.53627       7.57063       7.63843        7.6543       7.72079       -1e+300       -1e+300       -1e+300       -1e+300       -1e+300       -1e+300       -1e+300       -1e+300       -1e+300       -1e+300       -1e+300       -1e+300       -1e+300       -1e+300       -1e+300       -1e+300       -1e+300
       13.066        7.7741       7.80564       8.37021       8.48791       8.33992       7.86857       7.73556       7.64208        7.5264       7.59724       7.40396       7.15185       7.00155       6.59961       6.34433       6.22623       6.15873       5.94448       5.60984       5.30861       5.11715       4.99388       4.91159       4.55345        4.3681        4.1127       4.12222       3.94575       3.89468       3.89468       3.71253       3.68552       3.56405       3.61705        3.6332       3.69818       3.71693       3.78783       -1e+300       -1e+300       -1e+300       -1e+300       -1e+300       -1e+300       -1e+300       -1e+300       -1e+300       -1e+300       -1e+300       -1e+300       -1e+300       -1e+300       -1e+300       -1e+300       -1e+300
       13.068        8.4032       8.42294       8.19639       8.22287       8.08011       7.84355        7.7153       7.64653       7.63029       7.60607       7.38307       7.18636       7.14183       6.82124       6.46586       6.30233       6.23573       6.01499       5.66149       5.26882       5.07706       5.02726       4.90568       4.57475       4.37192       4.14944       4.21583       4.01479       4.01106       4.01106       3.78405       3.75819       3.61515       3.67473       3.66424       3.72905       3.74494        3.8219       -1e+300       -1e+300       -1e+300       -1e+300       -1e+300       -1e+300       -1e+300       -1e+300       -1e+300       -1e+300       -1e+300       -1e+300       -1e+300       -1e+300       -1e+300       -1e+300       -1e+300
        13.07       21.0971       20.5531       20.0465       19.8699       19.6718       19.6937       19.7923         19.79       19.7322        19.602       19.4206       19.2349        19.109       18.8901       18.5583       18.4048       18.2886       17.9525       17.6553       17.2749       17.0792       17.1415        16.987       16.6871       16.4649       16.2987       16.4074       16.1816        16.106        16.106       15.9724       15.9629       15.8516        15.905       15.8989       15.9564       15.9862       16.0588       -1e+300       -1e+300       -1e+300       -1e+300       -1e+300       -1e+300       -1e+300       -1e+300       -1e+300       -1e+300       -1e+300       -1e+300       -1e+300       -1e+300       -1e+300       -1e+300       -1e+300
       13.072       23.9582       23.5309        23.202        22.896       22.6861        23.131       23.0402       23.0093       22.9963       22.8281       22.6692       22.4738       22.1498        21.869       21.6028       21.4961       21.3728       21.0056       20.7145       20.3985       20.2044       20.4144       20.2185       19.8139        19.566       19.4672       19.6013       19.3294       19.2913       19.2913       19.3026        19.305       19.2289       19.2806       19.2966       19.3495       19.3963       19.4609       -1e+300       -1e+300       -1e+300       -1e+300       -1e+300       -1e+300       -1e+300       -1e+300       -1e+300       -1e+300       -1e+300       -1e+300       -1e+300       -1e+300       -1e+300       -1e+300       -1e+300
       13.074       14.8797        14.614       14.5609       14.1929       14.2776       14.2033       13.9429       13.8657       13.8464       13.6949       13.5312       13.3139       12.9944       12.6359       12.4095       12.3022       12.1687        11.859       11.4288       11.1662       10.9983       11.3253       10.9892        10.454       10.1553       10.1103       10.1848       9.89723       9.96263       9.96263       10.0033       9.98903        9.9008       9.91872       9.89871       9.92595       9.97184       10.0133       -1e+300       -1e+300       -1e+300       -1e+300       -1e+300       -1e+300       -1e+300       -1e+300       -1e+300       -1e+300       -1e+300       -1e+300       -1e+300       -1e+300       -1e+300       -1e+300       -1e+300
       13.076       14.2299       14.0585       13.6959       13.4248       13.1953       12.9162       12.8027       12.7658       12.6504       12.6041       12.4123       12.1707       11.9556       11.6691       11.4632       11.3282       11.1593       10.8778       10.2604       10.0816       9.99818       10.3519       9.87919       9.31202       8.96363       8.99709       8.99411       8.85297       8.99286       8.99286       8.98179       8.94182        8.8709       8.85161       8.83909       8.84055       8.88674       8.90682       -1e+300       -1e+300       -1e+300       -1e+300       -1e+300       -1e+300       -1e+300       -1e+300       -1e+300       -1e+300       -1e+300       -1e+300       -1e+300       -1e+300       -1e+300       -1e+300       -1e+300
       13.078       23.4189       23.0692       22.8193       22.4299         22.05       21.7924       21.7333       21.6625       21.5584       21.5082       21.3004       21.0845       20.8967       20.6925        20.525       20.3537       20.1559       19.8742       19.0223       19.0297       19.0336       19.3998       18.8318        18.266       17.8606       17.9515       17.8728       18.0313       18.2484       18.2484       18.1929        18.184       18.1468       18.1147       18.1372       18.1326       18.1956       18.1878       -1e+300       -1e+300       -1e+300       -1e+300       -1e+300       -1e+300       -1e+300       -1e+300       -1e+300       -1e+300       -1e+300       -1e+300       -1e+300       -1e+300       -1e+300       -1e+300       -1e+300
        13.08       26.5553       25.8145       25.1571       24.6302       24.6017       24.6827       24.7846       24.7821       24.7172       24.5057       24.2852       24.0946       23.9404       23.7324       23.4271        23.177       23.1029       22.7527         21.74       21.9641       22.0568       22.2931       21.7768       21.1681       20.7576       20.8276       20.6958       21.1746       21.4225       21.4225        21.189       21.1702       21.1416       21.0956       21.1203       21.1009       21.1653       21.1382       -1e+300       -1e+300       -1e+300       -1e+300       -1e+300       -1e+300       -1e+300       -1e+300       -1e+300       -1e+300       -1e+300       -1e+300       -1e+300       -1e+300       -1e+300       -1e+300       -1e+300
       13.082       16.9477       16.1186       14.9567        15.697        15.713       15.6857       15.9032       15.9437       15.8093       15.4578       15.2465       15.0481       14.9369       14.6465       14.2687       14.1142       14.1433        13.453       12.3878       12.8234       12.9463       12.9766       12.5338       11.8571       11.3941       11.4593       11.4032       11.9861       12.2432       12.2432       11.9007       11.8583       11.8082       11.7268       11.7168       11.6678       11.7292       11.6723       -1e+300       -1e+300       -1e+300       -1e+300       -1e+300       -1e+300       -1e+300       -1e+300       -1e+300       -1e+300       -1e+300       -1e+300       -1e+300       -1e+300       -1e+300       -1e+300       -1e+300
       13.084       20.4987       19.7655       18.7217       19.5313       19.8179       19.7803       19.8949        19.918       19.7268       19.3715       19.1674        18.998       18.8819       18.5452       18.2685       18.1992       18.1458       17.1328       16.2567       16.8373       16.9348        16.779       16.4484        15.826       15.3926       15.5249       15.6028       16.1743       16.3412       16.3412       15.9713       15.9506        15.922       15.8522       15.8578       15.7978       15.8744       15.7983       -1e+300       -1e+300       -1e+300       -1e+300       -1e+300       -1e+300       -1e+300       -1e+300       -1e+300       -1e+300       -1e+300       -1e+300       -1e+300       -1e+300       -1e+300       -1e+300       -1e+300
       13.086       21.0869        20.838       20.1584       20.3586       20.7152       20.3843       20.2874       20.2535       20.0914       19.8146       19.6109        19.473       19.3782       19.0051       18.8423         18.76        18.527       17.5717       16.8087       17.3912       17.3605       17.0023       16.7892       16.2639       15.9663       16.1742       16.4103       16.7365       16.7605       16.7605       16.4568       16.4331       16.4012       16.3306       16.3055        16.235       16.3018        16.239       -1e+300       -1e+300       -1e+300       -1e+300       -1e+300       -1e+300       -1e+300       -1e+300       -1e+300       -1e+300       -1e+300       -1e+300       -1e+300       -1e+300       -1e+300       -1e+300       -1e+300
       13.088       18.7032       18.3472       17.7389       17.9687       18.1729       17.7303       17.5497       17.4935       17.3773       17.1409       16.9772       16.8405       16.7553       16.3393       16.2139       16.0774       15.8323       14.9111        14.287       14.7285       14.5644       14.1098       13.9819       13.5619       13.4314       13.7334       14.0104       14.0602       13.9487       13.9487       13.8216       13.7928       13.7487       13.6823       13.6279       13.5607       13.6042       13.5606       -1e+300       -1e+300       -1e+300       -1e+300       -1e+300       -1e+300       -1e+300       -1e+300       -1e+300       -1e+300       -1e+300       -1e+300       -1e+300       -1e+300       -1e+300       -1e+300       -1e+300
        13.09       26.3372       25.8172       25.9717       26.3836        26.246       25.8976       25.7219       25.6579       25.5227       25.3405       25.2376       25.0769       24.9596       24.5484       24.3405       24.1451       23.9277       23.1717       22.5112        22.803       22.6292       22.2445       22.1661       21.9389       21.9341        22.318         22.55       22.4058       22.2384       22.2384       22.2458       22.2472       22.2287       22.2052       22.1825       22.1427       22.1907       22.1866       -1e+300       -1e+300       -1e+300       -1e+300       -1e+300       -1e+300       -1e+300       -1e+300       -1e+300       -1e+300       -1e+300       -1e+300       -1e+300       -1e+300       -1e+300       -1e+300       -1e+300
       13.092       23.0264       22.7169        22.903       23.1921       22.9921       22.5411       22.3214        22.237       22.1317       22.1139       21.9395       21.7451       21.6012       21.2273       20.9087       20.6588       20.4269       19.7914        19.001       19.2483       19.1657       18.8995       18.8277       18.7027       18.7201        19.044       19.1956       19.0194       18.8166       18.8166        18.853       18.8624       18.8317       18.8148       18.7752       18.7351       18.7931       18.8064       -1e+300       -1e+300       -1e+300       -1e+300       -1e+300       -1e+300       -1e+300       -1e+300       -1e+300       -1e+300       -1e+300       -1e+300       -1e+300       -1e+300       -1e+300       -1e+300       -1e+300
       13.094       13.7474       13.9084       13.7881       14.0227       13.8486       13.3079       13.0405        12.961       12.9965       12.9904       12.7376       12.5196       12.3745       12.0005       11.6172       11.3354       11.0399       10.4253       9.72043       9.96702       9.95046        9.7348        9.6543       9.52905       9.53719       9.75074       9.78288       9.52738       9.38223       9.38223       9.45436       9.43861       9.37703       9.34653       9.26058       9.23539       9.26684        9.2889       -1e+300       -1e+300       -1e+300       -1e+300       -1e+300       -1e+300       -1e+300       -1e+300       -1e+300       -1e+300       -1e+300       -1e+300       -1e+300       -1e+300       -1e+300       -1e+300       -1e+300
       13.096       7.49321       7.54308       7.48214       7.57522       7.42094       6.87601       6.64811       6.62003       6.66739       6.42921       6.34921       6.15621       5.97815       5.59611       5.11866       4.79265       4.46844       3.96371       3.48592       3.70735       3.69668       3.45823       3.37124       3.23766       3.22515        3.3265       3.19909       2.93181       2.91038       2.91038       3.02806       3.01228       2.93216       2.89244        2.7788        2.7557       2.79309       2.81363       -1e+300       -1e+300       -1e+300       -1e+300       -1e+300       -1e+300       -1e+300       -1e+300       -1e+300       -1e+300       -1e+300       -1e+300       -1e+300       -1e+300       -1e+300       -1e+300       -1e+300
       13.098       7.70668       7.48575       7.39664       7.41818       7.31228        6.7383       6.60066       6.57796       6.45847       6.15016       6.14022       5.94366        5.7903       5.47083        4.8343       4.46001       4.18604       3.92718       3.76232        3.8493       3.85492       3.54833       3.49572       3.33334       3.29179       3.36477       3.25259       2.79469       2.94305       2.94305       2.99218       2.99219       2.90893       2.87908       2.79872       2.78585       2.80507        2.8266       -1e+300       -1e+300       -1e+300       -1e+300       -1e+300       -1e+300       -1e+300       -1e+300       -1e+300       -1e+300       -1e+300       -1e+300       -1e+300       -1e+300       -1e+300       -1e+300       -1e+300
         13.1         14.26       14.0151       13.8886       13.8973        13.805       13.2686       13.1405       13.0839       12.9413       12.6739       12.6042       12.3852       12.2293       11.7608       11.0981       10.7432       10.6613       10.5766       10.6103       10.5966       10.4713       10.3002       10.2143       10.1146       10.0576       10.0988       9.91376        9.4242       9.60427       9.60427        9.6485       9.68986       9.63164       9.61419       9.52797       9.52909       9.56219       9.56837       -1e+300       -1e+300       -1e+300       -1e+300       -1e+300       -1e+300       -1e+300       -1e+300       -1e+300       -1e+300       -1e+300       -1e+300       -1e+300       -1e+300       -1e+300       -1e+300       -1e+300
       13.102       19.7796       19.6101       19.4493       19.4638       19.3595       18.8873       18.7314       18.7037       18.6225       18.3083       18.1805       17.9434       17.5937       17.0395       16.7019        16.503       16.4392        16.451       16.5405       16.3246       16.2032       16.1042        15.983       15.9346       15.8566       15.9051       15.6323        15.193       15.3335       15.3335       15.4416       15.4931       15.4662       15.4589       15.4042       15.4143       15.4538       15.4482       -1e+300       -1e+300       -1e+300       -1e+300       -1e+300       -1e+300       -1e+300       -1e+300       -1e+300       -1e+300       -1e+300       -1e+300       -1e+300       -1e+300       -1e+300       -1e+300       -1e+300
       13.104       15.1152       15.0714       14.8335       14.8672       14.7718       14.2627       14.1724       14.1933        14.095       13.7207       13.5484       13.3182       12.8571       12.6115       12.4697       12.2877       12.1336       12.2512       12.2176       11.9393       11.7145       11.6619       11.4978       11.5011       11.3999       11.4613       11.1558       10.7796       10.8459       10.8459        10.993       11.0603       11.0594       11.0544       11.0122       11.0248       11.0685        11.053       -1e+300       -1e+300       -1e+300       -1e+300       -1e+300       -1e+300       -1e+300       -1e+300       -1e+300       -1e+300       -1e+300       -1e+300       -1e+300       -1e+300       -1e+300       -1e+300       -1e+300
       13.106       9.32973       9.26391        8.9929       9.02921       8.92029       8.36505       8.37762       8.39197        8.2349        7.8789       7.66197       7.51061       7.33996       7.13521       6.97954       6.77137       6.66724       6.66017       6.45331       6.11034       5.85078       5.81782       5.64414       5.68983       5.62811       5.63589       5.34142       5.04932       4.98409       4.98409        5.1128        5.1591       5.16904       5.13993       5.08434       5.08403       5.10797        5.0791       -1e+300       -1e+300       -1e+300       -1e+300       -1e+300       -1e+300       -1e+300       -1e+300       -1e+300       -1e+300       -1e+300       -1e+300       -1e+300       -1e+300       -1e+300       -1e+300       -1e+300
       13.108       11.7254       11.5804       11.3123       11.3578       11.2107       10.7111       10.7128       10.7076       10.5583       10.1989       9.94074       9.82545       9.77197       9.61725       9.49121       9.35699       9.22833       9.09743       8.77871       8.36288        8.1752       8.11159       8.02522       8.07543       8.02792       8.04352       7.78355       7.51622       7.34607       7.34607       7.39291       7.40251       7.40784       7.35994       7.28152       7.26003       7.27357       7.22865       -1e+300       -1e+300       -1e+300       -1e+300       -1e+300       -1e+300       -1e+300       -1e+300       -1e+300       -1e+300       -1e+300       -1e+300       -1e+300       -1e+300       -1e+300       -1e+300       -1e+300
        13.11          14.4       14.2323        13.974       14.0631       13.9594       13.5161       13.3931       13.3719       13.2637       12.9344       12.6581       12.5083       12.4301       12.3941        12.317       12.2412       12.1236       11.9426       11.6015       11.1784       11.0236       10.8934       10.9514       10.9934       10.9875       11.0547       10.8557       10.6319       10.4975       10.4975       10.4841       10.4934        10.516       10.4808       10.4496       10.4299        10.447       10.4032       -1e+300       -1e+300       -1e+300       -1e+300       -1e+300       -1e+300       -1e+300       -1e+300       -1e+300       -1e+300       -1e+300       -1e+300       -1e+300       -1e+300       -1e+300       -1e+300       -1e+300
       13.112       13.0413        12.832       12.5542       12.6729       12.6308       12.2539       12.1438       12.0788       11.9336       11.6835        11.467       11.3212       11.2144       11.1897       11.1482       11.1078       11.0002       10.7894       10.4609       10.0518       9.84682       9.71054        9.8155       9.83231       9.85223       9.94717         9.777       9.55175       9.54636       9.54636       9.37954       9.37046       9.39674       9.36262       9.33972       9.30403       9.31828       9.26761       -1e+300       -1e+300       -1e+300       -1e+300       -1e+300       -1e+300       -1e+300       -1e+300       -1e+300       -1e+300       -1e+300       -1e+300       -1e+300       -1e+300       -1e+300       -1e+300       -1e+300
       13.114       11.9729       11.7423       11.4225       11.3919       11.4444       11.2154       11.1829       11.0956       10.9014       10.7248       10.5879       10.4538       10.3694       10.3337       10.2959       10.2004       10.0855       9.89596       9.50978        9.2473       9.00415       8.87404       8.98856        8.9951       8.98569       9.10411       8.92883       8.67335       8.78891       8.78891       8.48534       8.44893       8.45205       8.41404        8.3836       8.33359       8.33405       8.27628       -1e+300       -1e+300       -1e+300       -1e+300       -1e+300       -1e+300       -1e+300       -1e+300       -1e+300       -1e+300       -1e+300       -1e+300       -1e+300       -1e+300       -1e+300       -1e+300       -1e+300
       13.116       9.48568       9.30975       9.04503       8.77751       8.93268        8.8286       8.66899       8.57605       8.47637       8.34623       8.21289        8.0567       7.94432       7.92302       7.84961       7.76485       7.68437       7.45804       7.09533       6.95189       6.74859       6.59289        6.6933       6.65395       6.62686       6.76317       6.56947       6.35525       6.53697       6.53697       6.21874       6.14005       6.10728       6.06949       6.02126       5.95093       5.94447       5.87163       -1e+300       -1e+300       -1e+300       -1e+300       -1e+300       -1e+300       -1e+300       -1e+300       -1e+300       -1e+300       -1e+300       -1e+300       -1e+300       -1e+300       -1e+300       -1e+300       -1e+300
       13.118       9.69508       9.60589        9.4516       9.16459       9.21041       9.08524        8.8933       8.82043       8.76321       8.65777        8.4707       8.28318       8.12437       8.02111       7.99541       7.95246       7.85588       7.59854       7.37928       7.22538       7.13984       6.97344       7.02028       6.97674       6.94158       7.34107       6.78021       6.77188       6.84006       6.84006       6.65849       6.50166        6.4392       6.40623        6.3388       6.26548       6.25443       6.17284       -1e+300       -1e+300       -1e+300       -1e+300       -1e+300       -1e+300       -1e+300       -1e+300       -1e+300       -1e+300       -1e+300       -1e+300       -1e+300       -1e+300       -1e+300       -1e+300       -1e+300
        13.12       14.9519       14.8805       14.7897       14.5801       14.4691       14.2616       14.1644       14.1291       14.0531       13.9876       13.7385       13.5205       13.3679       13.1829       13.2386       13.1833       13.0109       12.7499       12.6036       12.4523       12.4305         12.31       12.2303       12.2969       12.2692        12.385       12.3299       12.2281       12.1609       12.1609       12.0504       11.9233       11.8664       11.8642       11.8054        11.754       11.7357       11.6619       -1e+300       -1e+300       -1e+300       -1e+300       -1e+300       -1e+300       -1e+300       -1e+300       -1e+300       -1e+300       -1e+300       -1e+300       -1e+300       -1e+300       -1e+300       -1e+300       -1e+300
       13.122       11.9475       11.8536       11.7588        11.622       11.3586       11.0955        11.038       11.0154       10.9803       10.8785       10.4468        10.321       10.2358       10.1442       10.1448       10.0337       9.80742       9.65037       9.44819       9.28057        9.2279       9.12486        9.0131       9.11971       9.11075       9.13492       9.13572        9.0817       8.81939       8.81939       8.85458         8.692        8.6106        8.5998       8.49852       8.45415       8.42356       8.36749       -1e+300       -1e+300       -1e+300       -1e+300       -1e+300       -1e+300       -1e+300       -1e+300       -1e+300       -1e+300       -1e+300       -1e+300       -1e+300       -1e+300       -1e+300       -1e+300       -1e+300
       13.124        8.1065       7.97145       7.82335       7.58233       7.34184       7.18677       7.13386       7.10599       7.00919       6.76192       6.37025        6.4141        6.4531       6.31353       6.14518       5.99637       5.79015       5.84355       5.57956       5.36129       5.23436       5.14178       5.12719       5.17719       5.20544        5.1316       5.12478       5.04436       4.82031       4.82031       4.87115       4.69434       4.60099       4.58698       4.43776       4.39779       4.35632       4.29202       -1e+300       -1e+300       -1e+300       -1e+300       -1e+300       -1e+300       -1e+300       -1e+300       -1e+300       -1e+300       -1e+300       -1e+300       -1e+300       -1e+300       -1e+300       -1e+300       -1e+300
       13.126       5.81561       5.61146         5.435       5.23053         5.247       5.00395        4.8973       4.84582       4.76307       4.50915       4.34522       4.32481       4.36209       4.01513       3.20758       2.95512       3.24422       3.73122       3.32773       3.10859       2.96596       2.95062       2.98461       2.89936       3.02503       2.85402       2.81228       2.72575       2.70023       2.70023        2.6813       2.50501       2.41054       2.39061        2.2216       2.18776       2.14411       2.07599       -1e+300       -1e+300       -1e+300       -1e+300       -1e+300       -1e+300       -1e+300       -1e+300       -1e+300       -1e+300       -1e+300       -1e+300       -1e+300       -1e+300       -1e+300       -1e+300       -1e+300
       13.128       7.03722        6.8323       6.74659       6.62757       6.58417       6.39487        6.2882       6.25935        6.2083       6.04662       5.74145       5.63044       5.59399       5.16046       3.97538        4.1002       4.54894       5.00381       4.59098       4.45416       4.33607       4.30585       4.37461       4.29674       4.40172       4.22822       4.16291       4.06358       4.13283       4.13283       4.00608       3.86435       3.77152       3.74282       3.56782       3.54107       3.50889        3.4744       -1e+300       -1e+300       -1e+300       -1e+300       -1e+300       -1e+300       -1e+300       -1e+300       -1e+300       -1e+300       -1e+300       -1e+300       -1e+300       -1e+300       -1e+300       -1e+300       -1e+300
        13.13       10.6127       10.4753       10.5014       10.4461       10.3951       10.2195       10.1298       10.0891       9.99971       9.85944       9.34577       9.37981       9.35176       8.81116       8.11053       8.21929       8.39337       8.58169       8.40509       8.30289       8.21949       8.08325       8.18751       8.25397       8.32861        8.2134       8.18159       8.11309       8.17255       8.17255       7.95236       7.82993       7.77368       7.75465       7.63485       7.61701       7.60679       7.58725       -1e+300       -1e+300       -1e+300       -1e+300       -1e+300       -1e+300       -1e+300       -1e+300       -1e+300       -1e+300       -1e+300       -1e+300       -1e+300       -1e+300       -1e+300       -1e+300       -1e+300