# Probe 0 (-0.35 0 0.005)
# Probe 1 (-0.35 0 0.0155)
# Probe 2 (-0.35 0 0.02653)
# Probe 3 (-0.35 0 0.0381)
# Probe 4 (-0.35 0 0.05026)
# Probe 5 (-0.35 0 0.06302)
# Probe 6 (-0.35 0 0.07642)
# Probe 7 (-0.35 0 0.08)
# Probe 8 (-0.35 0 0.09049)
# Probe 9 (-0.35 0 0.10527)
# Probe 10 (-0.35 0 0.12078)
# Probe 11 (-0.35 0 0.13707)
# Probe 12 (-0.35 0 0.15417)
# Probe 13 (-0.35 0 0.17213)
# Probe 14 (-0.35 0 0.19099)
# Probe 15 (-0.35 0 0.2)
# Probe 16 (-0.35 0 0.21079)
# Probe 17 (-0.35 0 0.23157)
# Probe 18 (-0.35 0 0.2534)
# Probe 19 (-0.35 0 0.27632)
# Probe 20 (-0.35 0 0.30039)
# Probe 21 (-0.35 0 0.32566)
# Probe 22 (-0.35 0 0.35219)
# Probe 23 (-0.35 0 0.38005)
# Probe 24 (-0.35 0 0.4093)
# Probe 25 (-0.35 0 0.44002)
# Probe 26 (-0.35 0 0.47227)
# Probe 27 (-0.35 0 0.50613)
# Probe 28 (-0.35 0 0.54169)
# Probe 29 (-0.35 0 0.57903)
# Probe 30 (-0.35 0 0.61823)
# Probe 31 (-0.35 0 0.65939)
# Probe 32 (-0.35 0 0.70261)
# Probe 33 (-0.35 0 0.74799)
# Probe 34 (-0.35 0 0.79564)
# Probe 35 (-0.35 0 0.84567)
# Probe 36 (-0.35 0 0.8982)
# Probe 37 (-0.35 0 0.95336)
# Probe 38 (-0.35 0 1.01128)
# Probe 39 (-0.35 0 1.0721)
# Probe 40 (-0.35 0 1.13595)
# Probe 41 (-0.35 0 1.203)
# Probe 42 (-0.35 0 1.2734)
# Probe 43 (-0.35 0 1.34732)
# Probe 44 (-0.35 0 1.42493)
# Probe 45 (-0.35 0 1.50643)
# Probe 46 (-0.35 0 1.592)
# Probe 47 (-0.35 0 1.68185)
# Probe 48 (-0.35 0 1.77619)
# Probe 49 (-0.35 0 1.87525)
# Probe 50 (-0.35 0 1.97927)
# Probe 51 (-0.35 0 2.08848)
# Probe 52 (-0.35 0 2.20315)
# Probe 53 (-0.35 0 2.32356)
# Probe 54 (-0.35 0 2.44999)
#       Probe             0             1             2             3             4             5             6             7             8             9            10            11            12            13            14            15            16            17            18            19            20            21            22            23            24            25            26            27            28            29            30            31            32            33            34            35            36            37            38            39            40            41            42            43            44            45            46            47            48            49            50            51            52            53            54
#        Time
       13.062             (5.54808 -1.05077 -0.162275)             (5.84627 -0.735555 -0.459776)             (5.9378 -0.5097 -0.607703)             (5.9807 -0.406254 0.599848)             (6.96069 -1.21535 0.972704)             (6.55256 -1.06683 0.345212)             (6.50771 -1.07966 0.293425)             (6.62451 -0.940731 0.00632355)             (6.72503 -0.419227 -0.478544)             (6.28741 0.479412 -0.0950526)             (7.477 -0.0725763 -0.137082)             (7.18002 -0.168398 -0.225094)             (7.55105 -0.36235 -0.00797132)             (7.57243 -0.295093 -0.177869)             (7.57063 -0.320153 -0.168209)             (7.46039 -0.176563 -0.169946)             (7.44056 0.0878991 -0.0963325)             (7.5738 0.102362 -0.0663059)             (7.64418 0.0208092 -0.00284692)             (7.79594 -0.194975 0.25117)             (7.57126 -0.117017 0.413407)             (7.52503 0.119473 -0.0361879)             (8.25541 0.392577 0.248427)             (8.05888 -0.262518 0.523722)             (8.10387 -0.443033 0.544355)             (8.32142 -0.229216 0.365886)             (8.16642 -0.158422 0.273978)             (8.36911 0.221595 0.0756203)             (9.36778 0.244577 0.0223258)             (9.36778 0.244577 0.0223258)             (9.14835 0.42039 -0.105628)             (9.09469 0.248305 -0.177402)             (9.0199 0.0429162 -0.370618)             (9.40696 0.290884 -0.338723)             (9.61389 0.404175 -0.211394)             (9.30719 0.422177 -0.162146)             (9.37496 0.427562 -0.272503)             (9.06163 0.424796 -0.132754)             (-1e+300 -1e+300 -1e+300)             (-1e+300 -1e+300 -1e+300)             (-1e+300 -1e+300 -1e+300)             (-1e+300 -1e+300 -1e+300)             (-1e+300 -1e+300 -1e+300)             (-1e+300 -1e+300 -1e+300)             (-1e+300 -1e+300 -1e+300)             (-1e+300 -1e+300 -1e+300)             (-1e+300 -1e+300 -1e+300)             (-1e+300 -1e+300 -1e+300)             (-1e+300 -1e+300 -1e+300)             (-1e+300 -1e+300 -1e+300)             (-1e+300 -1e+300 -1e+300)             (-1e+300 -1e+300 -1e+300)             (-1e+300 -1e+300 -1e+300)             (-1e+300 -1e+300 -1e+300)             (-1e+300 -1e+300 -1e+300)
       13.064             (5.02737 -0.0983491 -0.570289)             (6.18967 -0.569117 -0.990173)             (6.80407 -0.816541 -0.258001)             (6.87427 -1.0949 -0.0118166)             (6.87717 -1.13259 -0.123276)             (6.77027 -0.845327 -0.273172)             (6.48147 -0.621273 -0.625027)             (6.7089 -0.33142 -0.754541)             (6.90829 0.426701 -0.803813)             (7.16831 0.270867 -0.0418037)             (7.0054 -0.00986979 0.530668)             (7.05276 -0.374894 -0.316503)             (7.4787 -0.245411 0.00148985)             (7.15208 0.0713538 0.0301757)             (7.60821 -0.210519 0.0695362)             (7.56618 -0.340649 0.046484)             (7.45012 -0.273167 -0.101867)             (7.4635 -0.226541 0.0290296)             (7.6938 -0.10248 0.194159)             (7.84026 -0.372618 0.286913)             (7.4439 -0.0295153 0.532526)             (7.38516 0.19023 0.0436633)             (8.28487 0.338185 0.171867)             (8.01879 -0.356641 0.47069)             (8.00778 -0.520028 0.482622)             (8.23986 -0.180547 0.35082)             (8.13229 -0.14363 0.271205)             (8.48059 0.112612 0.154269)             (9.36924 0.194378 0.0352551)             (9.36924 0.194378 0.0352551)             (9.1457 0.433921 -0.051589)             (9.07313 0.216882 -0.161641)             (8.99327 -0.0311683 -0.377038)             (9.40702 0.252581 -0.32063)             (9.6783 0.398785 -0.208099)             (9.33691 0.360262 -0.134432)             (9.41987 0.333444 -0.271642)             (9.13024 0.300598 -0.147174)             (-1e+300 -1e+300 -1e+300)             (-1e+300 -1e+300 -1e+300)             (-1e+300 -1e+300 -1e+300)             (-1e+300 -1e+300 -1e+300)             (-1e+300 -1e+300 -1e+300)             (-1e+300 -1e+300 -1e+300)             (-1e+300 -1e+300 -1e+300)             (-1e+300 -1e+300 -1e+300)             (-1e+300 -1e+300 -1e+300)             (-1e+300 -1e+300 -1e+300)             (-1e+300 -1e+300 -1e+300)             (-1e+300 -1e+300 -1e+300)             (-1e+300 -1e+300 -1e+300)             (-1e+300 -1e+300 -1e+300)             (-1e+300 -1e+300 -1e+300)             (-1e+300 -1e+300 -1e+300)             (-1e+300 -1e+300 -1e+300)
       13.066             (4.66678 0.31475 -0.255484)             (6.61325 -1.59224 0.0318445)             (6.23057 -1.12499 0.193458)             (6.67213 -1.31268 -0.0389448)             (6.90959 -0.935125 -0.00692863)             (6.63122 -0.197498 -0.838648)             (6.67679 0.00402211 -0.792902)             (6.79257 0.238122 -0.772949)             (7.16253 0.0129704 -0.429185)             (7.36332 -0.26093 -0.231225)             (7.01608 -0.243913 -0.269689)             (7.1456 -0.548547 -0.412014)             (7.25567 -0.308008 -0.149566)             (6.89204 0.414167 0.372655)             (7.14028 0.34384 0.169726)             (7.594 -0.145743 0.210961)             (7.59115 -0.347996 0.226154)             (7.29794 -0.640769 0.287332)             (7.59574 -0.411502 0.314341)             (7.69212 -0.555559 0.201375)             (7.32276 0.0649835 0.535811)             (7.22926 0.258256 0.192422)             (8.22784 -0.0253475 0.203533)             (7.95388 -0.452145 0.43443)             (7.91505 -0.572503 0.391473)             (8.1254 -0.108395 0.316921)             (8.07414 -0.125473 0.248979)             (8.60324 -0.0117403 0.20391)             (9.32821 0.153697 0.0374091)             (9.32821 0.153697 0.0374091)             (9.13895 0.444543 -0.00307938)             (9.04596 0.187228 -0.159346)             (8.98016 -0.0867092 -0.384069)             (9.41356 0.207099 -0.298471)             (9.72684 0.370872 -0.210073)             (9.37095 0.296767 -0.115248)             (9.45606 0.256682 -0.265737)             (9.20542 0.196958 -0.171705)             (-1e+300 -1e+300 -1e+300)             (-1e+300 -1e+300 -1e+300)             (-1e+300 -1e+300 -1e+300)             (-1e+300 -1e+300 -1e+300)             (-1e+300 -1e+300 -1e+300)             (-1e+300 -1e+300 -1e+300)             (-1e+300 -1e+300 -1e+300)             (-1e+300 -1e+300 -1e+300)             (-1e+300 -1e+300 -1e+300)             (-1e+300 -1e+300 -1e+300)             (-1e+300 -1e+300 -1e+300)             (-1e+300 -1e+300 -1e+300)             (-1e+300 -1e+300 -1e+300)             (-1e+300 -1e+300 -1e+300)             (-1e+300 -1e+300 -1e+300)             (-1e+300 -1e+300 -1e+300)             (-1e+300 -1e+300 -1e+300)
       13.068             (4.7916 -0.398426 0.350439)             (6.43018 -1.57212 0.596334)             (6.23697 -0.785799 0.358589)             (6.72748 -1.3142 0.175123)             (6.44131 -0.578876 -0.255916)             (7.12352 0.176435 -0.43513)             (6.67468 0.205506 -0.532401)             (6.8976 -0.161508 -0.365113)             (6.92721 -0.651286 -0.0885542)             (6.94984 0.0201318 -0.110889)             (7.0821 -0.478082 -0.681576)             (7.07358 -0.490111 -0.659567)             (7.03519 -0.297123 -0.292262)             (6.90524 0.107789 0.43595)             (6.763 0.189394 0.392912)             (7.55358 -0.240788 0.417565)             (7.65508 -0.437403 0.353986)             (7.28714 -0.566843 0.247015)             (7.55661 -0.816099 0.200293)             (7.54297 -0.692056 0.0873187)             (7.20404 0.109226 0.424247)             (7.06713 0.283724 0.297317)             (8.04897 -0.496364 0.378641)             (7.86008 -0.54714 0.433828)             (7.81352 -0.601768 0.30819)             (8.00071 -0.0196292 0.256062)             (8.00764 -0.104399 0.193889)             (8.71754 -0.110586 0.175409)             (9.25307 0.129722 0.031467)             (9.25307 0.129722 0.031467)             (9.12928 0.454238 0.0353131)             (9.01947 0.16011 -0.169566)             (8.98875 -0.121858 -0.386634)             (9.43137 0.158203 -0.270228)             (9.75729 0.324807 -0.214677)             (9.41405 0.241393 -0.105079)             (9.48732 0.208828 -0.250828)             (9.28714 0.128781 -0.203347)             (-1e+300 -1e+300 -1e+300)             (-1e+300 -1e+300 -1e+300)             (-1e+300 -1e+300 -1e+300)             (-1e+300 -1e+300 -1e+300)             (-1e+300 -1e+300 -1e+300)             (-1e+300 -1e+300 -1e+300)             (-1e+300 -1e+300 -1e+300)             (-1e+300 -1e+300 -1e+300)             (-1e+300 -1e+300 -1e+300)             (-1e+300 -1e+300 -1e+300)             (-1e+300 -1e+300 -1e+300)             (-1e+300 -1e+300 -1e+300)             (-1e+300 -1e+300 -1e+300)             (-1e+300 -1e+300 -1e+300)             (-1e+300 -1e+300 -1e+300)             (-1e+300 -1e+300 -1e+300)             (-1e+300 -1e+300 -1e+300)
        13.07             (5.21218 -1.26123 0.14165)             (6.01704 -0.947671 0.188946)             (6.37424 -1.4473 0.582369)             (6.63787 -0.898455 0.323678)             (6.32255 -0.25622 -0.0789141)             (7.51966 0.102055 -0.12026)             (6.64083 0.317863 -0.168506)             (6.88908 0.0157601 -0.0909081)             (6.89548 -0.235208 -0.0260576)             (6.86384 0.0619286 -0.234544)             (6.97742 -0.236394 -0.579014)             (6.89107 -0.328039 -0.624951)             (6.80345 -0.365401 -0.248206)             (6.93364 -0.432616 0.304202)             (7.03604 -0.378546 0.720875)             (7.52725 -0.352868 0.637027)             (7.54682 -0.463089 0.319194)             (7.25352 -0.638562 -0.00696506)             (7.56163 -1.03054 0.0733778)             (7.53383 -0.7253 0.0650076)             (7.1022 0.102326 0.284816)             (6.93865 0.23061 0.300886)             (7.92284 -0.775585 0.573169)             (7.75318 -0.636413 0.459921)             (7.70452 -0.611155 0.249463)             (7.88443 0.0690235 0.171575)             (7.95493 -0.0863283 0.105904)             (8.80163 -0.13581 0.0543536)             (9.16995 0.128553 0.0184244)             (9.16995 0.128553 0.0184244)             (9.12734 0.462283 0.0599088)             (9.0086 0.134054 -0.190401)             (9.03321 -0.137299 -0.382381)             (9.47181 0.110982 -0.237758)             (9.7786 0.266435 -0.220479)             (9.47863 0.200276 -0.104818)             (9.52801 0.193875 -0.225379)             (9.38419 0.102571 -0.237643)             (-1e+300 -1e+300 -1e+300)             (-1e+300 -1e+300 -1e+300)             (-1e+300 -1e+300 -1e+300)             (-1e+300 -1e+300 -1e+300)             (-1e+300 -1e+300 -1e+300)             (-1e+300 -1e+300 -1e+300)             (-1e+300 -1e+300 -1e+300)             (-1e+300 -1e+300 -1e+300)             (-1e+300 -1e+300 -1e+300)             (-1e+300 -1e+300 -1e+300)             (-1e+300 -1e+300 -1e+300)             (-1e+300 -1e+300 -1e+300)             (-1e+300 -1e+300 -1e+300)             (-1e+300 -1e+300 -1e+300)             (-1e+300 -1e+300 -1e+300)             (-1e+300 -1e+300 -1e+300)             (-1e+300 -1e+300 -1e+300)
       13.072             (5.37222 -1.08468 -0.155187)             (5.9224 -0.87403 0.310157)             (6.69031 -1.1556 0.566631)             (6.50126 -0.116788 0.196332)             (6.13299 0.44438 -0.331425)             (7.39583 0.55926 -0.103407)             (6.71735 0.416679 0.102261)             (6.62798 0.4513 0.060861)             (6.73358 0.136156 0.0658531)             (6.80191 -0.0949779 -0.452771)             (7.02478 -0.326284 -0.413107)             (6.89537 -0.383371 -0.291546)             (6.75998 -0.353719 0.0081135)             (6.98893 -0.574089 0.23546)             (7.31881 -0.518737 0.519377)             (7.38407 -0.213073 0.273287)             (7.43279 -0.336802 0.17361)             (7.25175 -1.02837 0.132806)             (7.53492 -0.975494 0.182828)             (7.57753 -0.655499 0.162928)             (7.01908 0.0835532 0.188945)             (6.85514 0.13128 0.252758)             (7.96017 -0.842082 0.675801)             (7.63699 -0.707589 0.49293)             (7.57948 -0.600065 0.209884)             (7.76348 0.141163 0.0766878)             (7.90671 -0.069731 0.00441439)             (8.81291 -0.0433714 -0.116424)             (9.08534 0.157881 -0.00131223)             (9.08534 0.157881 -0.00131223)             (9.12281 0.46936 0.0681063)             (9.00643 0.109425 -0.218188)             (9.10251 -0.132609 -0.37115)             (9.52242 0.0751684 -0.20602)             (9.78092 0.206851 -0.227515)             (9.55438 0.179654 -0.115318)             (9.57256 0.212203 -0.190676)             (9.48367 0.120442 -0.268947)             (-1e+300 -1e+300 -1e+300)             (-1e+300 -1e+300 -1e+300)             (-1e+300 -1e+300 -1e+300)             (-1e+300 -1e+300 -1e+300)             (-1e+300 -1e+300 -1e+300)             (-1e+300 -1e+300 -1e+300)             (-1e+300 -1e+300 -1e+300)             (-1e+300 -1e+300 -1e+300)             (-1e+300 -1e+300 -1e+300)             (-1e+300 -1e+300 -1e+300)             (-1e+300 -1e+300 -1e+300)             (-1e+300 -1e+300 -1e+300)             (-1e+300 -1e+300 -1e+300)             (-1e+300 -1e+300 -1e+300)             (-1e+300 -1e+300 -1e+300)             (-1e+300 -1e+300 -1e+300)             (-1e+300 -1e+300 -1e+300)
       13.074             (5.53042 -0.956411 0.00512467)             (5.87967 -1.14518 0.498401)             (6.62639 -0.77657 0.302593)             (5.6987 0.654344 -0.607564)             (6.03124 0.885478 -0.724654)             (6.93066 0.267967 -0.295909)             (7.02175 0.386219 -0.136033)             (6.78587 0.29885 0.00823242)             (6.5024 0.0790156 0.00491693)             (6.66732 -0.262791 -0.337648)             (6.99671 -0.629117 -0.299183)             (6.90474 -0.487143 -0.0249406)             (6.75919 -0.131727 0.225657)             (6.82007 -0.244886 0.20863)             (7.21743 -0.198767 0.107701)             (7.34381 -0.123388 0.0391355)             (7.57426 -0.153596 0.0907376)             (7.38242 -1.18093 0.331554)             (7.46824 -0.872467 0.384099)             (7.5574 -0.512332 0.288311)             (6.94635 0.0778053 0.14284)             (6.8104 0.051109 0.231454)             (8.00187 -0.908532 0.742177)             (7.51472 -0.749235 0.513528)             (7.43696 -0.568271 0.174832)             (7.61927 0.187191 -0.00716046)             (7.84245 -0.0384228 -0.0794925)             (8.72775 0.178083 -0.248793)             (8.99975 0.218451 -0.0259281)             (8.99975 0.218451 -0.0259281)             (9.10299 0.471016 0.0628941)             (9.00072 0.0827816 -0.245617)             (9.1773 -0.112084 -0.353185)             (9.56431 0.0576618 -0.179731)             (9.75152 0.154625 -0.235205)             (9.62382 0.179043 -0.134974)             (9.60991 0.254585 -0.149181)             (9.56596 0.172491 -0.29065)             (-1e+300 -1e+300 -1e+300)             (-1e+300 -1e+300 -1e+300)             (-1e+300 -1e+300 -1e+300)             (-1e+300 -1e+300 -1e+300)             (-1e+300 -1e+300 -1e+300)             (-1e+300 -1e+300 -1e+300)             (-1e+300 -1e+300 -1e+300)             (-1e+300 -1e+300 -1e+300)             (-1e+300 -1e+300 -1e+300)             (-1e+300 -1e+300 -1e+300)             (-1e+300 -1e+300 -1e+300)             (-1e+300 -1e+300 -1e+300)             (-1e+300 -1e+300 -1e+300)             (-1e+300 -1e+300 -1e+300)             (-1e+300 -1e+300 -1e+300)             (-1e+300 -1e+300 -1e+300)             (-1e+300 -1e+300 -1e+300)
       13.076             (5.941 -1.14218 0.0488257)             (6.28208 -0.987086 0.352312)             (6.22461 -0.249669 -0.433385)             (5.72512 0.440374 -0.402758)             (6.32533 0.106825 -0.429726)             (6.92499 -0.150063 -0.210055)             (7.07971 0.458591 -0.254101)             (7.05862 0.434924 -0.235814)             (6.56454 -0.116658 -0.0948554)             (6.5172 -0.355298 -0.267208)             (6.73445 -0.885915 -0.312071)             (6.70799 -0.581242 -0.0359954)             (6.67001 0.0045308 0.179102)             (6.46735 0.139825 0.193403)             (6.9926 0.127894 0.120478)             (7.31901 0.111691 0.153836)             (7.56956 0.128743 -0.0788971)             (7.4892 -1.34117 0.399653)             (7.37168 -0.817979 0.431315)             (7.47127 -0.328314 0.309906)             (6.89082 0.0797978 0.118418)             (6.77641 0.0268538 0.272735)             (7.937 -1.00375 0.886565)             (7.40306 -0.753014 0.498943)             (7.30004 -0.513763 0.130787)             (7.45927 0.215891 -0.0601012)             (7.76223 0.0401963 -0.123555)             (8.58194 0.491343 -0.277038)             (8.92782 0.304459 -0.0562574)             (8.92782 0.304459 -0.0562574)             (9.07828 0.461637 0.0447235)             (8.99977 0.0502879 -0.268447)             (9.25694 -0.0810941 -0.332851)             (9.60046 0.0635303 -0.165986)             (9.70383 0.116833 -0.244808)             (9.69288 0.194166 -0.161627)             (9.65295 0.30636 -0.10608)             (9.63576 0.241874 -0.29801)             (-1e+300 -1e+300 -1e+300)             (-1e+300 -1e+300 -1e+300)             (-1e+300 -1e+300 -1e+300)             (-1e+300 -1e+300 -1e+300)             (-1e+300 -1e+300 -1e+300)             (-1e+300 -1e+300 -1e+300)             (-1e+300 -1e+300 -1e+300)             (-1e+300 -1e+300 -1e+300)             (-1e+300 -1e+300 -1e+300)             (-1e+300 -1e+300 -1e+300)             (-1e+300 -1e+300 -1e+300)             (-1e+300 -1e+300 -1e+300)             (-1e+300 -1e+300 -1e+300)             (-1e+300 -1e+300 -1e+300)             (-1e+300 -1e+300 -1e+300)             (-1e+300 -1e+300 -1e+300)             (-1e+300 -1e+300 -1e+300)
       13.078             (6.20284 -1.13041 -0.122698)             (6.45317 -0.414633 -0.625409)             (6.82995 -0.137033 -0.989949)             (6.82946 -0.216104 0.10222)             (6.58518 0.102329 0.210464)             (6.52063 -0.0769316 -0.0335894)             (6.63185 0.554145 -0.0789309)             (6.77499 0.632021 -0.211206)             (6.56142 -0.263035 -0.193165)             (6.52043 -0.610942 -0.281004)             (6.68267 -0.812634 -0.263346)             (6.63705 -0.579822 -0.129407)             (6.67396 -0.0678086 0.00499016)             (6.3395 0.302611 0.0813342)             (6.7996 0.353178 0.101084)             (7.00844 0.336354 0.0740083)             (7.08735 -0.0720813 -0.140444)             (7.7381 -1.49736 0.534997)             (7.26476 -0.718418 0.329409)             (7.36792 -0.127488 0.199205)             (6.85894 0.0798177 0.104327)             (6.71039 0.0334558 0.345247)             (7.80379 -1.00626 1.06699)             (7.31262 -0.714733 0.43752)             (7.19449 -0.43166 0.0757349)             (7.30725 0.256159 -0.0705159)             (7.67734 0.198996 -0.116121)             (8.43842 0.816498 -0.202194)             (8.8784 0.407426 -0.0929611)             (8.8784 0.407426 -0.0929611)             (9.065 0.440166 0.0146636)             (9.01541 0.0141147 -0.284309)             (9.34373 -0.0402516 -0.315995)             (9.6386 0.0997734 -0.170178)             (9.65835 0.103466 -0.256849)             (9.77271 0.223775 -0.191167)             (9.71869 0.356847 -0.0673553)             (9.70435 0.31357 -0.288376)             (-1e+300 -1e+300 -1e+300)             (-1e+300 -1e+300 -1e+300)             (-1e+300 -1e+300 -1e+300)             (-1e+300 -1e+300 -1e+300)             (-1e+300 -1e+300 -1e+300)             (-1e+300 -1e+300 -1e+300)             (-1e+300 -1e+300 -1e+300)             (-1e+300 -1e+300 -1e+300)             (-1e+300 -1e+300 -1e+300)             (-1e+300 -1e+300 -1e+300)             (-1e+300 -1e+300 -1e+300)             (-1e+300 -1e+300 -1e+300)             (-1e+300 -1e+300 -1e+300)             (-1e+300 -1e+300 -1e+300)             (-1e+300 -1e+300 -1e+300)             (-1e+300 -1e+300 -1e+300)             (-1e+300 -1e+300 -1e+300)
        13.08             (5.95853 -0.687848 -0.264752)             (6.45628 -0.0955089 -1.19274)             (6.87999 -1.10049 -1.24227)             (7.09944 -0.594712 -1.03875)             (6.85009 -0.0949588 -0.766918)             (6.31349 0.018702 -0.593494)             (6.30067 0.443539 -0.346192)             (6.52406 0.248165 -0.39104)             (6.55254 -0.565053 -0.326378)             (6.63155 -0.836748 -0.168933)             (6.63933 -0.662256 -0.222752)             (6.59538 -0.470159 -0.0637628)             (6.72983 -0.120997 -0.179349)             (6.55791 0.229304 -0.0856212)             (6.74898 0.190214 -0.047297)             (6.72492 -0.0686705 -0.165383)             (6.78198 -0.892396 -0.105007)             (7.74877 -1.59433 0.366712)             (7.17184 -0.551759 0.183831)             (7.26213 0.0641161 0.0416669)             (6.83805 0.0731453 0.109474)             (6.60111 0.0145249 0.391774)             (7.61678 -0.940059 1.17168)             (7.23404 -0.635564 0.343431)             (7.12796 -0.319187 0.0214206)             (7.18339 0.337785 -0.0382846)             (7.59985 0.435395 -0.0607207)             (8.33742 1.05475 -0.0733755)             (8.83734 0.509195 -0.13245)             (8.83734 0.509195 -0.13245)             (9.06161 0.402509 -0.0227451)             (9.03949 -0.0265407 -0.290442)             (9.42097 0.00492557 -0.305884)             (9.66835 0.163275 -0.192199)             (9.61688 0.1149 -0.268548)             (9.85483 0.259177 -0.216678)             (9.80214 0.39033 -0.0378774)             (9.76491 0.367839 -0.261703)             (-1e+300 -1e+300 -1e+300)             (-1e+300 -1e+300 -1e+300)             (-1e+300 -1e+300 -1e+300)             (-1e+300 -1e+300 -1e+300)             (-1e+300 -1e+300 -1e+300)             (-1e+300 -1e+300 -1e+300)             (-1e+300 -1e+300 -1e+300)             (-1e+300 -1e+300 -1e+300)             (-1e+300 -1e+300 -1e+300)             (-1e+300 -1e+300 -1e+300)             (-1e+300 -1e+300 -1e+300)             (-1e+300 -1e+300 -1e+300)             (-1e+300 -1e+300 -1e+300)             (-1e+300 -1e+300 -1e+300)             (-1e+300 -1e+300 -1e+300)             (-1e+300 -1e+300 -1e+300)             (-1e+300 -1e+300 -1e+300)
       13.082             (5.41313 -0.00355379 -0.255516)             (6.19757 -0.311084 -0.732055)             (6.58364 -0.242639 -1.10387)             (7.17888 -1.15256 -1.56558)             (6.83077 -0.640687 -1.28471)             (6.37236 0.088595 -0.895282)             (6.29093 0.122872 -0.660273)             (6.40558 -0.182822 -0.544642)             (6.53289 -0.73559 -0.331596)             (6.49693 -0.890056 -0.241498)             (6.46562 -0.560951 -0.151826)             (6.44586 -0.282719 0.0581922)             (6.65876 -0.0515443 -0.255791)             (6.89073 0.118298 -0.141351)             (6.65366 -0.216576 -0.116658)             (6.71444 -0.786107 -0.133575)             (7.1019 -1.50477 -0.0292139)             (7.65948 -1.87871 -0.0425031)             (7.12958 -0.400896 0.0517514)             (7.15532 0.231347 -0.0408183)             (6.79847 0.0642341 0.143602)             (6.48792 -0.0692003 0.401432)             (7.38589 -0.887882 1.19973)             (7.15374 -0.516032 0.245132)             (7.09523 -0.172405 -0.0145324)             (7.10703 0.479353 0.0183998)             (7.53819 0.704473 0.0188065)             (8.28608 1.12826 0.0512367)             (8.78423 0.593778 -0.170445)             (8.78423 0.593778 -0.170445)             (9.05952 0.350276 -0.0621882)             (9.05649 -0.0676983 -0.285842)             (9.46647 0.0523219 -0.30404)             (9.67414 0.249137 -0.22797)             (9.57405 0.150738 -0.275637)             (9.92387 0.294585 -0.230508)             (9.88907 0.398394 -0.0215843)             (9.80669 0.393025 -0.221606)             (-1e+300 -1e+300 -1e+300)             (-1e+300 -1e+300 -1e+300)             (-1e+300 -1e+300 -1e+300)             (-1e+300 -1e+300 -1e+300)             (-1e+300 -1e+300 -1e+300)             (-1e+300 -1e+300 -1e+300)             (-1e+300 -1e+300 -1e+300)             (-1e+300 -1e+300 -1e+300)             (-1e+300 -1e+300 -1e+300)             (-1e+300 -1e+300 -1e+300)             (-1e+300 -1e+300 -1e+300)             (-1e+300 -1e+300 -1e+300)             (-1e+300 -1e+300 -1e+300)             (-1e+300 -1e+300 -1e+300)             (-1e+300 -1e+300 -1e+300)             (-1e+300 -1e+300 -1e+300)             (-1e+300 -1e+300 -1e+300)
       13.084             (5.33774 0.118243 -0.130994)             (5.824 0.354219 -0.267977)             (6.37585 0.00415399 0.443176)             (7.42129 -1.36502 -0.999841)             (6.84973 -0.997009 -1.06248)             (6.28345 -0.425236 -0.9936)             (6.1397 -0.303425 -0.736491)             (6.17795 -0.471677 -0.529862)             (6.34923 -0.774031 -0.253874)             (6.33049 -0.816399 -0.339297)             (6.2796 -0.413453 -0.124034)             (6.29226 -0.155264 0.0508519)             (6.50162 -0.00381713 -0.217932)             (7.01871 -0.0472571 -0.100506)             (6.6064 -0.65087 -0.0587336)             (6.80569 -1.27994 -0.0310743)             (7.33422 -1.52502 0.0102051)             (7.74394 -1.90533 -0.458466)             (7.15025 -0.287613 -0.0120511)             (7.04271 0.364197 0.0334539)             (6.72231 0.0466229 0.210327)             (6.43607 -0.227213 0.420491)             (7.17593 -0.867094 1.19819)             (7.09354 -0.357276 0.162045)             (7.11137 0.0065981 -0.0233449)             (7.1097 0.668934 0.0658557)             (7.5121 0.94516 0.0848337)             (8.28686 1.01126 0.125056)             (8.73243 0.648988 -0.206168)             (8.73243 0.648988 -0.206168)             (9.07746 0.286266 -0.100688)             (9.07983 -0.105929 -0.273331)             (9.49052 0.0987401 -0.310965)             (9.67187 0.346365 -0.271359)             (9.55188 0.204484 -0.274164)             (9.99265 0.322655 -0.226903)             (9.99132 0.37624 -0.0208307)             (9.85035 0.382227 -0.174661)             (-1e+300 -1e+300 -1e+300)             (-1e+300 -1e+300 -1e+300)             (-1e+300 -1e+300 -1e+300)             (-1e+300 -1e+300 -1e+300)             (-1e+300 -1e+300 -1e+300)             (-1e+300 -1e+300 -1e+300)             (-1e+300 -1e+300 -1e+300)             (-1e+300 -1e+300 -1e+300)             (-1e+300 -1e+300 -1e+300)             (-1e+300 -1e+300 -1e+300)             (-1e+300 -1e+300 -1e+300)             (-1e+300 -1e+300 -1e+300)             (-1e+300 -1e+300 -1e+300)             (-1e+300 -1e+300 -1e+300)             (-1e+300 -1e+300 -1e+300)             (-1e+300 -1e+300 -1e+300)             (-1e+300 -1e+300 -1e+300)